 Job started on host DESKTOP-1C867QN
 at Mon May 26 19:52:55 2025

 +-------------------------------------------------+
 |                                                 |
 |      CCC   AA    SSS  TTTTT  EEEEE  PPPP        |
 |     C     A  A  S       T    E      P   P       |
 |     C     AAAA   SS     T    EEE    PPPP        |
 |     C     A  A     S    T    E      P           |
 |      CCC  A  A  SSS     T    EEEEE  P           |
 |                                                 |
 +-------------------------------------------------+
 |                                                 |
 | Materials Studio CASTEP version 2017            |
 | Ab Initio Total Energy Program                  |
 |                                                 |
 | Authors:                                        |
 | M. Segall, M. Probert, C. Pickard, P. Hasnip,   |
 | S. Clark, K. Refson, J. R. Yates, M. Payne      |
 |                                                 |
 | Contributors:                                   |
 | P. Lindan, P. Haynes, J. White, V. Milman,      |
 | N. Govind, M. Gibson, P. Tulip, V. Cocula,      |
 | B. Montanari, D. Quigley, M. Glover,            |
 | L. Bernasconi, A. Perlov, M. Plummer,           |
 | E. McNellis, J. Meyer, J. Gale, D. Jochym       |
 | J. Aarons, B. Walker, R. Gillen, D. Jones       |
 | T. Green, I. J. Bush, C. J. Armstrong,          |
 | E. J. Higgins, E. L. Brown, M. S. McFly         |
 |                                                 |
 | Copyright (c) 2000 - 2016                       |
 |                                                 |
 | Please cite                                     |
 |                                                 |
 |     "First principles methods using CASTEP"     |
 |                                                 |
 |         Zeitschrift fuer Kristallographie       |
 |           220(5-6) pp. 567-570 (2005)           |
 |                                                 |
 | S. J. Clark, M. D. Segall, C. J. Pickard,       |
 | P. J. Hasnip, M. J. Probert, K. Refson,         |
 | M. C. Payne                                     |
 |                                                 |
 |       in all publications arising from          |
 |              your use of CASTEP                 |
 |                                                 |
 +-------------------------------------------------+
 
 
 This version was compiled for x86_64-windows-msvc2008 on May 05 2016
 Intel(R) Math Kernel Library Version 11.1.2 
 Fundamental constants values: CODATA 2010
 
License checkout of MS_castep successful
 

 Warning in parameters_validate: current value of 
   ELEC_EIGENVALUE_TOL = 0.100000E-08eV
   is too large to achieve desired level of convergence of response properties.
   This may cause convergence failures and/or inaccuracy of results
   of PHONON+EFIELD calculations - recommend you use a smaller value, e.g. 
   ELEC_EIGENVALUE_TOL = 0.400000E-10eV
 +-------------------------------------------------+
 |                                                 |
 |  D D D D    F F F F F  P P P P     T T T T T    |
 |  D       D  F          P       P       T        |
 |  D       D  F F F F    P P P P         T        |
 |  D       D  F          P               T        |
 |  D D D D    F          P               T        |
 |                                                 |
 +-------------------------------------------------+
 |                                                 |
 | Welcome to Castep Linear Response (DFPT)        |
 |                                                 |
 | Copyright (c) 2006 - 2016                       |
 |                                                 |
 | Please cite the following publications in all   |
 | work arising from your use of CASTEP LR.        |
 |                                                 |
 | K. Refson, S. J. Clark and P. R. Tulip          |
 | Variational density functional perturbation     |
 | theory for dielectrics and lattice dynamics     |
 | Phys. Rev. B 73(15), 155114 (2006)              |
 +-------------------------------------------------+
 
Reading continuation data from model file AlSiTe3_Efield.check
 
 Atomic calculation performed for Al: 1s2 2s2 2p6 3s2 3p1
 
 Converged in 54 iterations to an ae energy of -6603.782 eV
 
 Identity difference: 1.59E-02
 
   ============================================================                
   | Pseudopotential Report - Date of generation 26-05-2025   |                
   ------------------------------------------------------------                
   | Element: Al Ionic charge:  3.00 Level of theory: PBE     |                
   | Atomic Solver: Koelling-Harmon                           |                
   |                                                          |                
   |               Reference Electronic Structure             |                
   |         Orbital         Occupation         Energy        |                
   |            3s              2.000           -0.285        |                
   |            3p              1.000           -0.100        |                
   |                                                          |                
   |                 Pseudopotential Definition               |                
   |        Beta     l      e      Rc     scheme   norm       |                
   |          1      0   -0.285   1.597     qc      1         |                
   |          2      2    0.000   1.597     qc      1         |                
   |         loc     1   -0.100   1.597     qc      1         |                
   |                                                          |                
   | No charge augmentation                                   |                
   | Partial core correction Rc = 1.116                       |                
   ------------------------------------------------------------                
   | "1|1.6|5|7|9|30N:31L:32N[]"                              |                
   ------------------------------------------------------------                
   |      Author: Chris J. Pickard, Cambridge University      |                
   ============================================================                
 
 Doing a self consistent calculation for the test configuration
 
 Atomic calculation performed for Al: 1s2 2s2 2p6 3s2 3p1
 
 Converged in 54 iterations to an ae energy of -6603.782 eV
 
 ---------------------------------------
 AE eigenvalue nl 10 =      -55.53347827
 AE eigenvalue nl 20 =       -3.97499262
 AE eigenvalue nl 21 =       -2.55933606
 AE eigenvalue nl 30 =       -0.28491403
 AE eigenvalue nl 31 =       -0.09966789
 ---------------------------------------
 PS eigenvalue nl 30 =       -0.28486787
 PS eigenvalue nl 31 =       -0.09954199
 ---------------------------------------
 Maximum eigenvalue error:   1.26E-04
 
 Derived cutoff energies: C=   2 M=   4 F=   4 E=   8
 
 
 ***************************************
 
 Atomic calculation performed for Si: 1s2 2s2 2p6 3s2 3p2
 
 Converged in 54 iterations to an ae energy of -7886.857 eV
 
 Identity difference: 2.03E-02
 
   ============================================================                
   | Pseudopotential Report - Date of generation 26-05-2025   |                
   ------------------------------------------------------------                
   | Element: Si Ionic charge:  4.00 Level of theory: PBE     |                
   | Atomic Solver: Koelling-Harmon                           |                
   |                                                          |                
   |               Reference Electronic Structure             |                
   |         Orbital         Occupation         Energy        |                
   |            3s              2.000           -0.397        |                
   |            3p              2.000           -0.150        |                
   |                                                          |                
   |                 Pseudopotential Definition               |                
   |        Beta     l      e      Rc     scheme   norm       |                
   |          1      0   -0.397   1.599     qc      1         |                
   |          2      2    0.000   1.599     qc      1         |                
   |         loc     1   -0.150   1.599     qc      1         |                
   |                                                          |                
   | No charge augmentation                                   |                
   | Partial core correction Rc = 1.117                       |                
   ------------------------------------------------------------                
   | "1|1.6|6|7|9|30N:31L:32N[]"                              |                
   ------------------------------------------------------------                
   |      Author: Chris J. Pickard, Cambridge University      |                
   ============================================================                
 
 Doing a self consistent calculation for the test configuration
 
 Atomic calculation performed for Si: 1s2 2s2 2p6 3s2 3p2
 
 Converged in 54 iterations to an ae energy of -7886.857 eV
 
 ---------------------------------------
 AE eigenvalue nl 10 =      -65.63192903
 AE eigenvalue nl 20 =       -5.12654326
 AE eigenvalue nl 21 =       -3.51173659
 AE eigenvalue nl 30 =       -0.39736430
 AE eigenvalue nl 31 =       -0.14998156
 ---------------------------------------
 PS eigenvalue nl 30 =       -0.39735312
 PS eigenvalue nl 31 =       -0.14996116
 ---------------------------------------
 Maximum eigenvalue error:   2.04E-05
 
 Derived cutoff energies: C=   2 M=   6 F=   6 E=   8
 
 
 ***************************************
 
 Atomic calculation performed for Te:
 1s2 2s2 2p6 3s2 3p6 3d10 4s2 4p6 4d10 5s2 5p4
 
 Converged in 74 iterations to an ae energy of -184887.051 eV
 
 Identity difference: 6.08E-02
 
   ============================================================                
   | Pseudopotential Report - Date of generation 26-05-2025   |                
   ------------------------------------------------------------                
   | Element: Te Ionic charge:  6.00 Level of theory: PBE     |                
   | Atomic Solver: Koelling-Harmon                           |                
   |                                                          |                
   |               Reference Electronic Structure             |                
   |         Orbital         Occupation         Energy        |                
   |            5s              2.000           -0.555        |                
   |            5p              4.000           -0.219        |                
   |                                                          |                
   |                 Pseudopotential Definition               |                
   |        Beta     l      e      Rc     scheme   norm       |                
   |          1      0   -0.555   2.204     qc      1         |                
   |          2      1   -0.219   2.204     qc      1         |                
   |         loc     2    0.000   2.204     pn      0         |                
   |                                                          |                
   | No charge augmentation                                   |                
   | Partial core correction Rc = 1.540                       |                
   ------------------------------------------------------------                
   | "2|2.2|4.8|7.4|9.2|50N:51N[]"                            |                
   ------------------------------------------------------------                
   |      Author: Chris J. Pickard, Cambridge University      |                
   ============================================================                
 
 Doing a self consistent calculation for the test configuration
 
 Atomic calculation performed for Te:
 1s2 2s2 2p6 3s2 3p6 3d10 4s2 4p6 4d10 5s2 5p4
 
 Converged in 74 iterations to an ae energy of -184887.051 eV
 
 ---------------------------------------
 AE eigenvalue nl 10 =    -1162.35227488
 AE eigenvalue nl 20 =     -178.24632272
 AE eigenvalue nl 21 =     -160.00620108
 AE eigenvalue nl 30 =      -35.47173737
 AE eigenvalue nl 31 =      -29.54318713
 AE eigenvalue nl 32 =      -20.58152877
 AE eigenvalue nl 40 =       -6.04112586
 AE eigenvalue nl 41 =       -4.20445800
 AE eigenvalue nl 42 =       -1.53071897
 AE eigenvalue nl 50 =       -0.55522942
 AE eigenvalue nl 51 =       -0.21878005
 ---------------------------------------
 PS eigenvalue nl 50 =       -0.55521691
 PS eigenvalue nl 51 =       -0.21877065
 ---------------------------------------
 Maximum eigenvalue error:   1.25E-05
 
 Derived cutoff energies: C=   4 M=   6 F=   8 E=  10
 
 
 ***************************************
 
 Pseudo atomic calculation performed for Al 3s2 3p1
 
 Converged in 24 iterations to a total energy of -192.9803 eV
 
 
 Pseudo atomic calculation performed for Si 3s2 3p2
 
 Converged in 25 iterations to a total energy of -215.5380 eV
 
 
 Pseudo atomic calculation performed for Te 5s2 5p4
 
 Converged in 25 iterations to a total energy of -568.4201 eV
 
Initialising basis set for model.
Reinitialising basis set for current geometry.
Continuing from previous run with ground state wavefunction.
Continuing from previous run with ground state density.
 Info: BS_MAX_ITER modified from        250 to        200
 Info: CALCULATE_RAMAN modified from F to T
 Info: RAMAN_RANGE_HIGH modified from     1.000000000000000     eV to     1.239841929200420     eV
 Info: EFIELD_MAX_CYCLES modified from         50 to        500
 WARNING: phonon dynamical matrix data in check file HAS BEEN DISCARDED.
          because PHONON_KPOINT_LIST changed on continuation.
 WARNING: phonon fine_frequency data in check file HAS BEEN DISCARDED.
          because PHONON_FINE_KPOINT_LIST changed on continuation.
 WARNING: phonon thermal ADP data in check file HAS BEEN DISCARDED.
 Calculation parallelised over 48 processes.
 Data is distributed by G-vector(24-way) and k-point(2-way)

 ************************************ Title ************************************
 CASTEP calculation from Materials Studio

 ***************************** General Parameters ******************************
  
 output verbosity                               : normal  (1)
 continuing from                                : AlSiTe3_Efield.check
 write checkpoint data to                       : AlSiTe3_Efield.check
 type of calculation                            : Phonon followed by E-field
 stress calculation                             : off
 density difference calculation                 : off
 electron localisation func (ELF) calculation   : off
 Hirshfeld analysis                             : off
 unlimited duration calculation
 timing information                             : on
 memory usage estimate                          : on
 write final potential to formatted file        : off
 write final density to formatted file          : off
 write BibTeX reference list                    : on
 write OTFG pseudopotential files               : on
 checkpoint writing                             : both castep_bin and check files
  
 output         length unit                     : A
 output           mass unit                     : amu
 output           time unit                     : ps
 output         charge unit                     : e
 output           spin unit                     : hbar/2
 output         energy unit                     : eV
 output          force unit                     : eV/A
 output       velocity unit                     : A/ps
 output       pressure unit                     : GPa
 output     inv_length unit                     : 1/A
 output      frequency unit                     : cm-1
 output force constant unit                     : eV/A**2
 output         volume unit                     : A**3
 output   IR intensity unit                     : (D/A)**2/amu
 output         dipole unit                     : D
 output         efield unit                     : eV/A/e
 output        entropy unit                     : J/mol/K
  
 wavefunctions paging                           : none
 random number generator seed                   :  193323897
 data distribution                              : optimal for this architecture
 optimization strategy                          : maximize speed(+++)

 *********************** Exchange-Correlation Parameters ***********************
  
 using functional                               : Perdew Burke Ernzerhof
 relativistic treatment                         : Koelling-Harmon
 DFT+D: Semi-empirical dispersion correction    : off

 ************************* Pseudopotential Parameters **************************
  
 pseudopotential representation                 : reciprocal space
 <beta|phi> representation                      : reciprocal space
 spin-orbit coupling                            : off

 **************************** Basis Set Parameters *****************************
  
 plane wave basis set cut-off                   :   280.0000   eV
 size of standard grid                          :     2.0000
 size of   fine   grid                          :     3.0000
 size of   fine   gmax                          :    25.7181   1/A
 largest prime factor in FFT                    :          5
 finite basis set correction                    : automatic
 number of sample energies                      :          3
           sample  spacing                      :     5.0000   eV

 **************************** Electronic Parameters ****************************
  
 number of  electrons                           :  50.00    
 net charge of system                           :  0.000    
 treating system as non-spin-polarized
 number of bands                                :         25

 ********************* Electronic Minimization Parameters **********************
  
 Method: Treating system as non-metallic,
         and number of  SD  steps               :          1
         and number of  CG  steps               :          4
  
 total energy / atom convergence tol.           : 0.1000E-09   eV
 eigen-energy convergence tolerance             : 0.1000E-08   eV
 max force / atom convergence tol.              : ignored
 convergence tolerance window                   :          3   cycles
 max. number of SCF cycles                      :       9999
 periodic dipole correction                     : NONE

 ************************** Density Mixing Parameters **************************
  
 density-mixing scheme                          : Pulay
 max. length of mixing history                  :         20
 charge density mixing amplitude                : 0.5000    
 cut-off energy for mixing                      :  280.0       eV
 charge density mixing g-vector                 :  1.500       1/A

 ****************************** Phonon Parameters ******************************
  
 phonon calculation method                      : linear response
 phonon convergence tolerance                   : 0.1000E-04   eV/A**2
 max. number of phonon cycles                   :        100
 max. number of phonon CG steps                 :          0
 convergence tolerance window                   :          2   cycles
 DFPT solver method                             : AllBands (Gonze variational method)
 preconditioning scheme                         : TPA     
 fine phonon calculation method                 : none
 LO/TO splitting term                           : not included
 acoustic phonon sum rule                       : correct D(q) in recip-space
 Born effective charges                         : calculated
 Born charge sum rule                           : explicitly enforced
 Raman intensities                              : calculated
 Raman frequency window start                   :  0.000       eV
 Raman frequency window stop                    :  1.240       eV
 phonon k-points                                : use reduced set
 phonon DOS                                     : not calculated
 backups results every                          :        900   seconds

 ***************************** E-Field Parameters ******************************
  
 E-field convergence tolerance                  : 0.1000E-04   A**3
 DFPT solver method                             : AllBands (Gonze variational method)
 ionic contribution to permittivity             : included
 treating system as a crystal, 
 => ignoring 3 lowest modes when calculating ionic  contribution to permittivity
 calculation with frequency spacing             : 0.4556E-05   cm-1
 Q-factor for lineshape broadening              :    50.0000
 max. number of E-field cycles                  :        500
 max. number of E-field CG steps                :          0
 convergence tolerance window                   :          2   cycles
 band convergence tolerance                     : 0.1000E-08   eV

 *******************************************************************************
  
 
                           -------------------------------
                                      Unit Cell
                           -------------------------------
        Real Lattice(A)                      Reciprocal Lattice(1/A)
   5.9866164  -3.4563746   0.0000000        1.0495387  -0.0000000  -0.0000000
   0.0000000   6.9127491  -0.0000000        0.5247693   0.9089271   0.0000000
   0.0000000  -0.0000000   7.6945147       -0.0000000   0.0000000   0.8165798
 
                       Lattice parameters(A)       Cell Angles
                    a =    6.912749          alpha =   90.000000
                    b =    6.912749          beta  =   90.000000
                    c =    7.694515          gamma =  120.000000
 
                       Current cell volume =  318.429622       A**3
 
                           -------------------------------
                                     Cell Contents
                           -------------------------------
                         Total number of ions in cell =   10
                      Total number of species in cell =    3
                        Max number of any one species =    6
 
            xxxxxxxxxxxxxxxxxxxxxxxxxxxxxxxxxxxxxxxxxxxxxxxxxxxxxxxxxxxx
            x  Element    Atom        Fractional coordinates of atoms  x
            x            Number           u          v          w      x
            x----------------------------------------------------------x
            x  Al           1         0.666667   0.333333   0.500000   x 
            x  Al           2        -0.666667  -0.333333  -0.500000   x 
            x  Si           1        -0.000000   0.000000   0.350403   x 
            x  Si           2         0.000000   0.000000  -0.350403   x 
            x  Te           1        -0.000000   0.643928   0.730371   x 
            x  Te           2        -0.643928  -0.643928   0.730371   x 
            x  Te           3         0.643928   0.000000   0.730371   x 
            x  Te           4        -0.643928   0.000000  -0.730371   x 
            x  Te           5         0.643928   0.643928  -0.730371   x 
            x  Te           6        -0.000000  -0.643928  -0.730371   x 
            xxxxxxxxxxxxxxxxxxxxxxxxxxxxxxxxxxxxxxxxxxxxxxxxxxxxxxxxxxxx
 
 
                         No user defined ionic velocities
 
                           -------------------------------
                                   Details of Species
                           -------------------------------
 
                               Mass of species in AMU
                                    Al   26.9820004
                                    Si   28.0849991
                                    Te  127.5999985
 
                          Electric Quadrupole Moment (Barn)
                                    Al    0.1466000 Isotope 27
                                    Si    1.0000000 No Isotope Defined
                                    Te    1.0000000 No Isotope Defined
 
                          Files used for pseudopotentials:
                                    Al 1|1.6|5|7|9|30N:31L:32N[]
                                    Si 1|1.6|6|7|9|30N:31L:32N[]
                                    Te 2|2.2|4.8|7.4|9.2|50N:51N[]
 
                           -------------------------------
                              k-Points For BZ Sampling
                           -------------------------------
                       MP grid size for SCF calculation is  2  2  2
                            with an offset of   0.250  0.250  0.000
                       Number of kpoints used =             2
 
                           -------------------------------
                               Symmetry and Constraints
                           -------------------------------
 
                      Maximum deviation from symmetry = 0.457252E-14     ANG
 
                      Number of symmetry operations   =          12
         There are no ionic constraints specified or generated for this cell
                      Point group of crystal =    20: D3d, -3m, -3 2/m
                      Space group of crystal =   162: P-31m, -P 3 2
 
             Set iprint > 1 for details on symmetry rotations/translations
 
                         Centre of mass is NOT constrained
 
                         Number of cell constraints= 4
                         Cell constraints are:  1 1 3 0 0 0
 
                         External pressure/stress (GPa)
                          0.00000   0.00000   0.00000
                                    0.00000   0.00000
                                              0.00000

 Phonon calculation: q-point   1 (of    1) ( 0.000, 0.000, 0.000):       24.75s
 -------------------------------------------------------------------------------
 
 ==============================================================================
 +                           Vibrational Frequencies                          +
 +                           -----------------------                          +
 +                                                                            +
 + Performing frequency calculation at  1 wavevector  (q-pt )                 +
 + ========================================================================== +
 +                                                                            +
 +============================================================================+
 +                       Raman Intensity Progress Report                      +
 +----------------------------------------------------------------------------+
 + RAMAN: Not a continuation; generating Raman intensities from beginning     +
 +----------------------------------------------------------------------------+
 + Mode     1: not Raman active; calculation not required                     +
 + Mode     2: not Raman active; calculation not required                     +
 + Mode     3: not Raman active; calculation not required                     +
 + Mode     4: performing Raman intensity calculation                         +
 + Mode number:   4 completed;                   time taken:    35.62 seconds +
 + Mode     5: degenerate with previous; explicit calculation not required    +
 + Mode     6: not Raman active; calculation not required                     +
 + Mode     7: not Raman active; calculation not required                     +
 + Mode     8: not Raman active; calculation not required                     +
 + Mode     9: performing Raman intensity calculation                         +
 + Mode number:   9 completed;                   time taken:    34.41 seconds +
 + Mode    10: degenerate with previous; explicit calculation not required    +
 + Mode    11: not Raman active; calculation not required                     +
 + Mode    12: not Raman active; calculation not required                     +
 + Mode    13: not Raman active; calculation not required                     +
 + Mode    14: not Raman active; calculation not required                     +
 + Mode    15: performing Raman intensity calculation                         +
 + Mode number:  15 completed;                   time taken:    20.41 seconds +
 + Mode    16: performing Raman intensity calculation                         +
 + Mode number:  16 completed;                   time taken:    34.27 seconds +
 + Mode    17: degenerate with previous; explicit calculation not required    +
 + Mode    18: performing Raman intensity calculation                         +
 + Mode number:  18 completed;                   time taken:    20.31 seconds +
 + Mode    19: not Raman active; calculation not required                     +
 + Mode    20: not Raman active; calculation not required                     +
 + Mode    21: not Raman active; calculation not required                     +
 + Mode    22: not Raman active; calculation not required                     +
 + Mode    23: performing Raman intensity calculation                         +
 + Mode number:  23 completed;                   time taken:    34.06 seconds +
 + Mode    24: degenerate with previous; explicit calculation not required    +
 + Mode    25: not Raman active; calculation not required                     +
 + Mode    26: not Raman active; calculation not required                     +
 + Mode    27: not Raman active; calculation not required                     +
 + Mode    28: performing Raman intensity calculation                         +
 + Mode number:  28 completed;                   time taken:    34.12 seconds +
 + Mode    29: degenerate with previous; explicit calculation not required    +
 + Mode    30: performing Raman intensity calculation                         +
 + Mode number:  30 completed;                   time taken:    20.25 seconds +
 +----------------------------------------------------------------------------+
 +   E N D    O F    R A M A N    I N T E N S I T Y    C A L C U L A T I O N  +
 +         Raman intensity calculation completed in     233.45 seconds        +
 +============================================================================+
 + -------------------------------------------------------------------------- +
 +  q-pt=    1 (  0.000000  0.000000  0.000000)     1.0000000000              +
 + -------------------------------------------------------------------------- +
 +  Acoustic sum rule correction <   7.278759 cm-1 applied                    +
 +     N      Frequency irrep.    ir intensity active  raman activity  active + 
 +                (cm-1)         ((D/A)**2/amu)              (A**4/amu)       + 
 +                                                                            +
 +     1      -0.018370   a          0.0000000  N            0.0000000  N     + 
 +     2      -0.013094   b          0.0000000  N            0.0000000  N     + 
 +     3      -0.013094   b          0.0000000  N            0.0000000  N     + 
 +     4      67.700278   c          0.0000000  N         1966.5854085  Y     + 
 +     5      67.700278   c          0.0000000  N         1966.5856339  Y     + 
 +     6      70.920843   d          0.0000000  N            0.0000000  N     + 
 +     7      78.814623   b          0.1013560  Y            0.0000000  N     + 
 +     8      78.814623   b          0.1013560  Y            0.0000000  N     + 
 +     9      86.166902   c          0.0000000  N          139.0059047  Y     + 
 +    10      86.166902   c          0.0000000  N          139.0060056  Y     + 
 +    11      87.968070   a          0.0011408  Y            0.0000000  N     + 
 +    12     101.547332   b          0.0316554  Y            0.0000000  N     + 
 +    13     101.547332   b          0.0316554  Y            0.0000000  N     + 
 +    14     103.501456   e          0.0000000  N            0.0000000  N     + 
 +    15     107.921555   f          0.0000000  N         1066.5478340  Y     + 
 +    16     109.438719   c          0.0000000  N          485.1537928  Y     + 
 +    17     109.438719   c          0.0000000  N          485.1541848  Y     + 
 +    18     145.892339   f          0.0000000  N        27909.1261581  Y     + 
 +    19     195.555146   a          0.0987201  Y            0.0000000  N     + 
 +    20     205.418834   b         29.6980850  Y            0.0000000  N     + 
 +    21     205.418834   b         29.6980850  Y            0.0000000  N     + 
 +    22     207.136616   d          0.0000000  N            0.0000000  N     + 
 +    23     218.035745   c          0.0000000  N         8692.6619475  Y     + 
 +    24     218.035745   c          0.0000000  N         8692.6620394  Y     + 
 +    25     303.309789   a          2.5108271  Y            0.0000000  N     + 
 +    26     346.957275   b          5.7581632  Y            0.0000000  N     + 
 +    27     346.957275   b          5.7581632  Y            0.0000000  N     + 
 +    28     347.628125   c          0.0000000  N        20999.8896349  Y     + 
 +    29     347.628125   c          0.0000000  N        20999.9006057  Y     + 
 +    30     476.008563   f          0.0000000  N         2177.6376197  Y     + 
 + .......................................................................... +
 +        Character table from group theory analysis of eigenvectors          +
 +                           Point Group =  20, D3d                           +
 + .......................................................................... +
 +  Rep  Mul |    E   3  2'   I  -3 m_v                                       +
 +           | ------------------------                                       +
 + a A2u   4 |    1   1  -1  -1  -1   1                                       +
 + b Eu    5 |    2  -1   0  -2   1   0                                       +
 + c Eg    5 |    2  -1   0   2  -1   0                                       +
 + d A2g   2 |    1   1  -1   1   1  -1                                       +
 + e A1u   1 |    1   1   1  -1  -1  -1                                       +
 + f A1g   3 |    1   1   1   1   1   1                                       +
 ==============================================================================
  
 ==============================================================================
 +                      Raman Susceptibility Tensors ((A/amu)*0.5)            +
 +----------------------------------------------------------------------------+
 + Mode number:   1 Raman tensor       Depolarisation Ratio                   +
 +     0.0000    0.0000    0.0000      0.000000                               +
 +     0.0000    0.0000    0.0000                                             +
 +     0.0000    0.0000    0.0000                                             +
 +                                                                            +
 + Mode number:   2 Raman tensor       Depolarisation Ratio                   +
 +     0.0000    0.0000    0.0000      0.000000                               +
 +     0.0000    0.0000    0.0000                                             +
 +     0.0000    0.0000    0.0000                                             +
 +                                                                            +
 + Mode number:   3 Raman tensor       Depolarisation Ratio                   +
 +     0.0000    0.0000    0.0000      0.000000                               +
 +     0.0000    0.0000    0.0000                                             +
 +     0.0000    0.0000    0.0000                                             +
 +                                                                            +
 + Mode number:   4 Raman tensor       Depolarisation Ratio                   +
 +    -0.2052    0.5008    0.0305      0.750000                               +
 +     0.5008    0.2055   -0.0124                                             +
 +     0.0305   -0.0124   -0.0000                                             +
 +                                                                            +
 + Mode number:   5 Raman tensor       Depolarisation Ratio                   +
 +    -0.5010   -0.2053   -0.0124      0.750000                               +
 +    -0.2053    0.5006   -0.0305                                             +
 +    -0.0124   -0.0305    0.0000                                             +
 +                                                                            +
 + Mode number:   6 Raman tensor       Depolarisation Ratio                   +
 +     0.0000    0.0000    0.0000      0.000000                               +
 +     0.0000    0.0000    0.0000                                             +
 +     0.0000    0.0000    0.0000                                             +
 +                                                                            +
 + Mode number:   7 Raman tensor       Depolarisation Ratio                   +
 +     0.0000    0.0000    0.0000      0.000000                               +
 +     0.0000    0.0000    0.0000                                             +
 +     0.0000    0.0000    0.0000                                             +
 +                                                                            +
 + Mode number:   8 Raman tensor       Depolarisation Ratio                   +
 +     0.0000    0.0000    0.0000      0.000000                               +
 +     0.0000    0.0000    0.0000                                             +
 +     0.0000    0.0000    0.0000                                             +
 +                                                                            +
 + Mode number:   9 Raman tensor       Depolarisation Ratio                   +
 +     0.1352    0.0482    0.0048      0.750000                               +
 +     0.0482   -0.1351    0.0133                                             +
 +     0.0048    0.0133   -0.0000                                             +
 +                                                                            +
 + Mode number:  10 Raman tensor       Depolarisation Ratio                   +
 +    -0.0483    0.1352    0.0133      0.749999                               +
 +     0.1352    0.0480   -0.0048                                             +
 +     0.0133   -0.0048    0.0000                                             +
 +                                                                            +
 + Mode number:  11 Raman tensor       Depolarisation Ratio                   +
 +     0.0000    0.0000    0.0000      0.000000                               +
 +     0.0000    0.0000    0.0000                                             +
 +     0.0000    0.0000    0.0000                                             +
 +                                                                            +
 + Mode number:  12 Raman tensor       Depolarisation Ratio                   +
 +     0.0000    0.0000    0.0000      0.000000                               +
 +     0.0000    0.0000    0.0000                                             +
 +     0.0000    0.0000    0.0000                                             +
 +                                                                            +
 + Mode number:  13 Raman tensor       Depolarisation Ratio                   +
 +     0.0000    0.0000    0.0000      0.000000                               +
 +     0.0000    0.0000    0.0000                                             +
 +     0.0000    0.0000    0.0000                                             +
 +                                                                            +
 + Mode number:  14 Raman tensor       Depolarisation Ratio                   +
 +     0.0000    0.0000    0.0000      0.000000                               +
 +     0.0000    0.0000    0.0000                                             +
 +     0.0000    0.0000    0.0000                                             +
 +                                                                            +
 + Mode number:  15 Raman tensor       Depolarisation Ratio                   +
 +    -0.1752    0.0000    0.0000      0.055022                               +
 +     0.0000   -0.1752    0.0000                                             +
 +     0.0000    0.0000   -0.4165                                             +
 +                                                                            +
 + Mode number:  16 Raman tensor       Depolarisation Ratio                   +
 +     0.2622    0.0496   -0.0066      0.750000                               +
 +     0.0496   -0.2625   -0.0346                                             +
 +    -0.0066   -0.0346   -0.0000                                             +
 +                                                                            +
 + Mode number:  17 Raman tensor       Depolarisation Ratio                   +
 +    -0.0493    0.2624   -0.0346      0.749999                               +
 +     0.2624    0.0499    0.0066                                             +
 +    -0.0346    0.0066    0.0000                                             +
 +                                                                            +
 + Mode number:  18 Raman tensor       Depolarisation Ratio                   +
 +    -1.7963    0.0000    0.0000      0.117051                               +
 +     0.0000   -1.7963    0.0000                                             +
 +     0.0000    0.0000   -0.0466                                             +
 +                                                                            +
 + Mode number:  19 Raman tensor       Depolarisation Ratio                   +
 +     0.0000    0.0000    0.0000      0.000000                               +
 +     0.0000    0.0000    0.0000                                             +
 +     0.0000    0.0000    0.0000                                             +
 +                                                                            +
 + Mode number:  20 Raman tensor       Depolarisation Ratio                   +
 +     0.0000    0.0000    0.0000      0.000000                               +
 +     0.0000    0.0000    0.0000                                             +
 +     0.0000    0.0000    0.0000                                             +
 +                                                                            +
 + Mode number:  21 Raman tensor       Depolarisation Ratio                   +
 +     0.0000    0.0000    0.0000      0.000000                               +
 +     0.0000    0.0000    0.0000                                             +
 +     0.0000    0.0000    0.0000                                             +
 +                                                                            +
 + Mode number:  22 Raman tensor       Depolarisation Ratio                   +
 +     0.0000    0.0000    0.0000      0.000000                               +
 +     0.0000    0.0000    0.0000                                             +
 +     0.0000    0.0000    0.0000                                             +
 +                                                                            +
 + Mode number:  23 Raman tensor       Depolarisation Ratio                   +
 +    -0.3223   -1.0933   -0.0269      0.750000                               +
 +    -1.0933    0.3223   -0.0077                                             +
 +    -0.0269   -0.0077   -0.0001                                             +
 +                                                                            +
 + Mode number:  24 Raman tensor       Depolarisation Ratio                   +
 +     1.0933   -0.3223   -0.0077      0.750000                               +
 +    -0.3223   -1.0933    0.0269                                             +
 +    -0.0077    0.0269    0.0002                                             +
 +                                                                            +
 + Mode number:  25 Raman tensor       Depolarisation Ratio                   +
 +     0.0000    0.0000    0.0000      0.000000                               +
 +     0.0000    0.0000    0.0000                                             +
 +     0.0000    0.0000    0.0000                                             +
 +                                                                            +
 + Mode number:  26 Raman tensor       Depolarisation Ratio                   +
 +     0.0000    0.0000    0.0000      0.000000                               +
 +     0.0000    0.0000    0.0000                                             +
 +     0.0000    0.0000    0.0000                                             +
 +                                                                            +
 + Mode number:  27 Raman tensor       Depolarisation Ratio                   +
 +     0.0000    0.0000    0.0000      0.000000                               +
 +     0.0000    0.0000    0.0000                                             +
 +     0.0000    0.0000    0.0000                                             +
 +                                                                            +
 + Mode number:  28 Raman tensor       Depolarisation Ratio                   +
 +     1.6641   -0.6104   -0.0126      0.750000                               +
 +    -0.6104   -1.6625    0.0339                                             +
 +    -0.0126    0.0339    0.0001                                             +
 +                                                                            +
 + Mode number:  29 Raman tensor       Depolarisation Ratio                   +
 +    -0.6090   -1.6633   -0.0339      0.749999                               +
 +    -1.6633    0.6118   -0.0126                                             +
 +    -0.0339   -0.0126    0.0002                                             +
 +                                                                            +
 + Mode number:  30 Raman tensor       Depolarisation Ratio                   +
 +     0.5104    0.0000    0.0000      0.210002                               +
 +     0.0000    0.5104    0.0000                                             +
 +     0.0000    0.0000   -0.1186                                             +
 +                                                                            +
 +----------------------------------------------------------------------------+
  

 ===============================================================================
        Optical Permittivity (f->infinity)             DC Permittivity (f=0)
        ----------------------------------             ---------------------
        16.32863     0.00000     0.00000        21.49292     0.00000    -0.00000
         0.00000    16.32863     0.00000         0.00000    21.49292    -0.00000
         0.00000     0.00000     4.88318        -0.00000    -0.00000     5.08427
 ===============================================================================

 ===============================================================================
                                    Polarisabilities (A**3)
                Optical (f->infinity)                       Static  (f=0)
                ---------------------                       -------------
       388.42474     0.00000     0.00000       519.28696     0.00000    -0.00000
         0.00000   388.42474     0.00000         0.00000   519.28696    -0.00000
         0.00000     0.00000    98.39916        -0.00000    -0.00000   103.49460
 ===============================================================================
 ===================================================
                   Born Effective Charges
                   ----------------------
   Al      1         3.91047     0.00000     0.00000
                     0.00000     3.91047    -0.00000
                     0.00000    -0.00000     1.15013
   Al      2         3.91047     0.00000     0.00000
                     0.00000     3.91047    -0.00000
                     0.00000    -0.00000     1.15013
   Si      1         1.80098     0.00000    -0.00000
                     0.00000     1.80098     0.00000
                    -0.00000    -0.00000     0.25515
   Si      2         1.80098     0.00000    -0.00000
                     0.00000     1.80098     0.00000
                    -0.00000    -0.00000     0.25515
   Te      1        -2.09615    -0.00000    -0.00000
                    -0.00000    -1.71148    -0.05750
                    -0.00000    -0.50451    -0.46843
   Te      2        -1.80765     0.16657     0.04980
                     0.16657    -1.99998     0.02875
                     0.43692     0.25225    -0.46843
   Te      3        -1.80765    -0.16657    -0.04980
                    -0.16657    -1.99998     0.02875
                    -0.43692     0.25225    -0.46843
   Te      4        -1.80765    -0.16657    -0.04980
                    -0.16657    -1.99998     0.02875
                    -0.43692     0.25225    -0.46843
   Te      5        -1.80765     0.16657     0.04980
                     0.16657    -1.99998     0.02875
                     0.43692     0.25225    -0.46843
   Te      6        -2.09615    -0.00000    -0.00000
                    -0.00000    -1.71148    -0.05750
                    -0.00000    -0.50451    -0.46843
 ===================================================
 
 ***************** Symmetrised Forces *****************
 *                                                    *
 *            Cartesian components (eV/A)             *
 * -------------------------------------------------- *
 *                   x            y            z      *
 *                                                    *
 * Al        1      0.00000      0.00000      0.00000 *
 * Al        2     -0.00000      0.00000      0.00000 *
 * Si        1      0.00000      0.00000      0.00016 *
 * Si        2      0.00000     -0.00000     -0.00016 *
 * Te        1     -0.00000     -0.00345     -0.00897 *
 * Te        2      0.00299      0.00172     -0.00897 *
 * Te        3     -0.00299      0.00172     -0.00897 *
 * Te        4      0.00299     -0.00172      0.00897 *
 * Te        5     -0.00299     -0.00172      0.00897 *
 * Te        6      0.00000      0.00345      0.00897 *
 *                                                    *
 ******************************************************

Writing analysis data to AlSiTe3_Efield.castep_bin

Writing model to AlSiTe3_Efield.check
 
 A BibTeX formatted list of references used in this run has been written to 
 AlSiTe3_Efield.bib
 
Initialisation time =     24.56 s
Calculation time    =    233.55 s
Finalisation time   =      0.31 s
Total time          =    258.42 s
  
Overall parallel efficiency rating: Poor (46%)                                  
  
Data was distributed by:-
G-vector (24-way); efficiency rating: Poor (49%)                                
k-point (2-way); efficiency rating: Very good (86%)                             
  
Parallel notes:
1) Calculation only took 258.3 s, so efficiency estimates may be inaccurate.    
