 Job started on host DESKTOP-1C867QN
 at Mon May 26 19:33:23 2025

 +-------------------------------------------------+
 |                                                 |
 |      CCC   AA    SSS  TTTTT  EEEEE  PPPP        |
 |     C     A  A  S       T    E      P   P       |
 |     C     AAAA   SS     T    EEE    PPPP        |
 |     C     A  A     S    T    E      P           |
 |      CCC  A  A  SSS     T    EEEEE  P           |
 |                                                 |
 +-------------------------------------------------+
 |                                                 |
 | Materials Studio CASTEP version 2017            |
 | Ab Initio Total Energy Program                  |
 |                                                 |
 | Authors:                                        |
 | M. Segall, M. Probert, C. Pickard, P. Hasnip,   |
 | S. Clark, K. Refson, J. R. Yates, M. Payne      |
 |                                                 |
 | Contributors:                                   |
 | P. Lindan, P. Haynes, J. White, V. Milman,      |
 | N. Govind, M. Gibson, P. Tulip, V. Cocula,      |
 | B. Montanari, D. Quigley, M. Glover,            |
 | L. Bernasconi, A. Perlov, M. Plummer,           |
 | E. McNellis, J. Meyer, J. Gale, D. Jochym       |
 | J. Aarons, B. Walker, R. Gillen, D. Jones       |
 | T. Green, I. J. Bush, C. J. Armstrong,          |
 | E. J. Higgins, E. L. Brown, M. S. McFly         |
 |                                                 |
 | Copyright (c) 2000 - 2016                       |
 |                                                 |
 | Please cite                                     |
 |                                                 |
 |     "First principles methods using CASTEP"     |
 |                                                 |
 |         Zeitschrift fuer Kristallographie       |
 |           220(5-6) pp. 567-570 (2005)           |
 |                                                 |
 | S. J. Clark, M. D. Segall, C. J. Pickard,       |
 | P. J. Hasnip, M. J. Probert, K. Refson,         |
 | M. C. Payne                                     |
 |                                                 |
 |       in all publications arising from          |
 |              your use of CASTEP                 |
 |                                                 |
 +-------------------------------------------------+
 
 
 This version was compiled for x86_64-windows-msvc2008 on May 05 2016
 Intel(R) Math Kernel Library Version 11.1.2 
 Fundamental constants values: CODATA 2010
 
License checkout of MS_castep successful
 
 
 Atomic calculation performed for Al: 1s2 2s2 2p6 3s2 3p1
 
 Converged in 54 iterations to an ae energy of -6603.782 eV
 
 Identity difference: 1.59E-02
 
   ============================================================                
   | Pseudopotential Report - Date of generation 26-05-2025   |                
   ------------------------------------------------------------                
   | Element: Al Ionic charge:  3.00 Level of theory: PBE     |                
   | Atomic Solver: Koelling-Harmon                           |                
   |                                                          |                
   |               Reference Electronic Structure             |                
   |         Orbital         Occupation         Energy        |                
   |            3s              2.000           -0.285        |                
   |            3p              1.000           -0.100        |                
   |                                                          |                
   |                 Pseudopotential Definition               |                
   |        Beta     l      e      Rc     scheme   norm       |                
   |          1      0   -0.285   1.597     qc      1         |                
   |          2      2    0.000   1.597     qc      1         |                
   |         loc     1   -0.100   1.597     qc      1         |                
   |                                                          |                
   | No charge augmentation                                   |                
   | Partial core correction Rc = 1.116                       |                
   ------------------------------------------------------------                
   | "1|1.6|5|7|9|30N:31L:32N[]"                              |                
   ------------------------------------------------------------                
   |      Author: Chris J. Pickard, Cambridge University      |                
   ============================================================                
 
 Doing a self consistent calculation for the test configuration
 
 Atomic calculation performed for Al: 1s2 2s2 2p6 3s2 3p1
 
 Converged in 54 iterations to an ae energy of -6603.782 eV
 
 ---------------------------------------
 AE eigenvalue nl 10 =      -55.53347827
 AE eigenvalue nl 20 =       -3.97499262
 AE eigenvalue nl 21 =       -2.55933606
 AE eigenvalue nl 30 =       -0.28491403
 AE eigenvalue nl 31 =       -0.09966789
 ---------------------------------------
 PS eigenvalue nl 30 =       -0.28486787
 PS eigenvalue nl 31 =       -0.09954199
 ---------------------------------------
 Maximum eigenvalue error:   1.26E-04
 
 Derived cutoff energies: C=   2 M=   4 F=   4 E=   8
 
 
 ***************************************
 
 Atomic calculation performed for Si: 1s2 2s2 2p6 3s2 3p2
 
 Converged in 54 iterations to an ae energy of -7886.857 eV
 
 Identity difference: 2.03E-02
 
   ============================================================                
   | Pseudopotential Report - Date of generation 26-05-2025   |                
   ------------------------------------------------------------                
   | Element: Si Ionic charge:  4.00 Level of theory: PBE     |                
   | Atomic Solver: Koelling-Harmon                           |                
   |                                                          |                
   |               Reference Electronic Structure             |                
   |         Orbital         Occupation         Energy        |                
   |            3s              2.000           -0.397        |                
   |            3p              2.000           -0.150        |                
   |                                                          |                
   |                 Pseudopotential Definition               |                
   |        Beta     l      e      Rc     scheme   norm       |                
   |          1      0   -0.397   1.599     qc      1         |                
   |          2      2    0.000   1.599     qc      1         |                
   |         loc     1   -0.150   1.599     qc      1         |                
   |                                                          |                
   | No charge augmentation                                   |                
   | Partial core correction Rc = 1.117                       |                
   ------------------------------------------------------------                
   | "1|1.6|6|7|9|30N:31L:32N[]"                              |                
   ------------------------------------------------------------                
   |      Author: Chris J. Pickard, Cambridge University      |                
   ============================================================                
 
 Doing a self consistent calculation for the test configuration
 
 Atomic calculation performed for Si: 1s2 2s2 2p6 3s2 3p2
 
 Converged in 54 iterations to an ae energy of -7886.857 eV
 
 ---------------------------------------
 AE eigenvalue nl 10 =      -65.63192903
 AE eigenvalue nl 20 =       -5.12654326
 AE eigenvalue nl 21 =       -3.51173659
 AE eigenvalue nl 30 =       -0.39736430
 AE eigenvalue nl 31 =       -0.14998156
 ---------------------------------------
 PS eigenvalue nl 30 =       -0.39735312
 PS eigenvalue nl 31 =       -0.14996116
 ---------------------------------------
 Maximum eigenvalue error:   2.04E-05
 
 Derived cutoff energies: C=   2 M=   6 F=   6 E=   8
 
 
 ***************************************
 
 Atomic calculation performed for Te:
 1s2 2s2 2p6 3s2 3p6 3d10 4s2 4p6 4d10 5s2 5p4
 
 Converged in 74 iterations to an ae energy of -184887.051 eV
 
 Identity difference: 6.08E-02
 
   ============================================================                
   | Pseudopotential Report - Date of generation 26-05-2025   |                
   ------------------------------------------------------------                
   | Element: Te Ionic charge:  6.00 Level of theory: PBE     |                
   | Atomic Solver: Koelling-Harmon                           |                
   |                                                          |                
   |               Reference Electronic Structure             |                
   |         Orbital         Occupation         Energy        |                
   |            5s              2.000           -0.555        |                
   |            5p              4.000           -0.219        |                
   |                                                          |                
   |                 Pseudopotential Definition               |                
   |        Beta     l      e      Rc     scheme   norm       |                
   |          1      0   -0.555   2.204     qc      1         |                
   |          2      1   -0.219   2.204     qc      1         |                
   |         loc     2    0.000   2.204     pn      0         |                
   |                                                          |                
   | No charge augmentation                                   |                
   | Partial core correction Rc = 1.540                       |                
   ------------------------------------------------------------                
   | "2|2.2|4.8|7.4|9.2|50N:51N[]"                            |                
   ------------------------------------------------------------                
   |      Author: Chris J. Pickard, Cambridge University      |                
   ============================================================                
 
 Doing a self consistent calculation for the test configuration
 
 Atomic calculation performed for Te:
 1s2 2s2 2p6 3s2 3p6 3d10 4s2 4p6 4d10 5s2 5p4
 
 Converged in 74 iterations to an ae energy of -184887.051 eV
 
 ---------------------------------------
 AE eigenvalue nl 10 =    -1162.35227488
 AE eigenvalue nl 20 =     -178.24632272
 AE eigenvalue nl 21 =     -160.00620108
 AE eigenvalue nl 30 =      -35.47173737
 AE eigenvalue nl 31 =      -29.54318713
 AE eigenvalue nl 32 =      -20.58152877
 AE eigenvalue nl 40 =       -6.04112586
 AE eigenvalue nl 41 =       -4.20445800
 AE eigenvalue nl 42 =       -1.53071897
 AE eigenvalue nl 50 =       -0.55522942
 AE eigenvalue nl 51 =       -0.21878005
 ---------------------------------------
 PS eigenvalue nl 50 =       -0.55521691
 PS eigenvalue nl 51 =       -0.21877065
 ---------------------------------------
 Maximum eigenvalue error:   1.25E-05
 
 Derived cutoff energies: C=   4 M=   6 F=   8 E=  10
 
 
 ***************************************
 
 Pseudo atomic calculation performed for Al 3s2 3p1
 
 Converged in 16 iterations to a total energy of -192.9803 eV
 
 
 Pseudo atomic calculation performed for Si 3s2 3p2
 
 Converged in 17 iterations to a total energy of -215.5380 eV
 
 
 Pseudo atomic calculation performed for Te 5s2 5p4
 
 Converged in 17 iterations to a total energy of -568.4201 eV
 
 Calculation parallelised over 48 processes.
 Data is distributed by G-vector(24-way) and k-point(2-way)

 ************************************ Title ************************************
 CASTEP calculation from Materials Studio

 ***************************** General Parameters ******************************
  
 output verbosity                               : normal  (1)
 write checkpoint data to                       : AlSiTe3.check
 type of calculation                            : geometry optimization
 stress calculation                             : on
 density difference calculation                 : off
 electron localisation func (ELF) calculation   : off
 Hirshfeld analysis                             : off
 unlimited duration calculation
 timing information                             : on
 memory usage estimate                          : on
 write final potential to formatted file        : off
 write final density to formatted file          : off
 write BibTeX reference list                    : on
 write OTFG pseudopotential files               : on
 checkpoint writing                             : both castep_bin and check files
  
 output         length unit                     : A
 output           mass unit                     : amu
 output           time unit                     : ps
 output         charge unit                     : e
 output           spin unit                     : hbar/2
 output         energy unit                     : eV
 output          force unit                     : eV/A
 output       velocity unit                     : A/ps
 output       pressure unit                     : GPa
 output     inv_length unit                     : 1/A
 output      frequency unit                     : cm-1
 output force constant unit                     : eV/A**2
 output         volume unit                     : A**3
 output   IR intensity unit                     : (D/A)**2/amu
 output         dipole unit                     : D
 output         efield unit                     : eV/A/e
 output        entropy unit                     : J/mol/K
  
 wavefunctions paging                           : none
 random number generator seed                   : randomised (193323897)
 data distribution                              : optimal for this architecture
 optimization strategy                          : maximize speed(+++)

 *********************** Exchange-Correlation Parameters ***********************
  
 using functional                               : Perdew Burke Ernzerhof
 relativistic treatment                         : Koelling-Harmon
 DFT+D: Semi-empirical dispersion correction    : off

 ************************* Pseudopotential Parameters **************************
  
 pseudopotential representation                 : reciprocal space
 <beta|phi> representation                      : reciprocal space
 spin-orbit coupling                            : off

 **************************** Basis Set Parameters *****************************
  
 plane wave basis set cut-off                   :   280.0000   eV
 size of standard grid                          :     2.0000
 size of   fine   grid                          :     3.0000
 size of   fine   gmax                          :    25.7181   1/A
 largest prime factor in FFT                    :          5
 finite basis set correction                    : automatic
 number of sample energies                      :          3
           sample  spacing                      :     5.0000   eV

 **************************** Electronic Parameters ****************************
  
 number of  electrons                           :  50.00    
 net charge of system                           :  0.000    
 treating system as non-spin-polarized
 number of bands                                :         25

 ********************* Electronic Minimization Parameters **********************
  
 Method: Treating system as non-metallic,
         and number of  SD  steps               :          1
         and number of  CG  steps               :          4
  
 total energy / atom convergence tol.           : 0.5000E-06   eV
 eigen-energy convergence tolerance             : 0.2000E-06   eV
 max force / atom convergence tol.              : ignored
 convergence tolerance window                   :          3   cycles
 max. number of SCF cycles                      :       9999
 periodic dipole correction                     : NONE

 ************************** Density Mixing Parameters **************************
  
 density-mixing scheme                          : Pulay
 max. length of mixing history                  :         20
 charge density mixing amplitude                : 0.5000    
 cut-off energy for mixing                      :  280.0       eV
 charge density mixing g-vector                 :  1.500       1/A

 ********************** Geometry Optimization Parameters ***********************
  
 optimization method                            : BFGS
 variable cell method                           : fixed basis size
 max. number of steps                           :       9999
 estimated bulk modulus                         :  500.0       GPa
 estimated <frequency>                          :  1668.       cm-1
 geom line minimiser                            : on
 with line minimiser tolerance                  :     0.4000
 total energy convergence tolerance             : 0.5000E-05   eV/atom
        max ionic |force| tolerance             : 0.1000E-01   eV/A
 max ionic |displacement| tolerance             : 0.5000E-03   A
   max |stress component| tolerance             : 0.2000E-01   GPa
 convergence tolerance window                   :          2   steps
 backup results every                           :          5   steps

 *******************************************************************************
  
 
                           -------------------------------
                                      Unit Cell
                           -------------------------------
        Real Lattice(A)                      Reciprocal Lattice(1/A)
   5.9446236  -3.4321300   0.0000000        1.0569526   0.0000000   0.0000000
   0.0000000   6.8642601   0.0000000        0.5284763   0.9153478   0.0000000
   0.0000000   0.0000000   7.6310087        0.0000000   0.0000000   0.8233755
 
                       Lattice parameters(A)       Cell Angles
                    a =    6.864260          alpha =   90.000000
                    b =    6.864260          beta  =   90.000000
                    c =    7.631009          gamma =  120.000000
 
                       Current cell volume =  311.386690       A**3
 
                           -------------------------------
                                     Cell Contents
                           -------------------------------
                         Total number of ions in cell =   10
                      Total number of species in cell =    3
                        Max number of any one species =    6
 
            xxxxxxxxxxxxxxxxxxxxxxxxxxxxxxxxxxxxxxxxxxxxxxxxxxxxxxxxxxxx
            x  Element    Atom        Fractional coordinates of atoms  x
            x            Number           u          v          w      x
            x----------------------------------------------------------x
            x  Al           1         0.666667   0.333333   0.500000   x 
            x  Al           2        -0.666667  -0.333333  -0.500000   x 
            x  Si           1         0.000000   0.000000   0.348979   x 
            x  Si           2         0.000000   0.000000  -0.348979   x 
            x  Te           1        -0.000000   0.644865   0.730926   x 
            x  Te           2        -0.644865  -0.644865   0.730926   x 
            x  Te           3         0.644865   0.000000   0.730926   x 
            x  Te           4        -0.644865   0.000000  -0.730926   x 
            x  Te           5         0.644865   0.644865  -0.730926   x 
            x  Te           6        -0.000000  -0.644865  -0.730926   x 
            xxxxxxxxxxxxxxxxxxxxxxxxxxxxxxxxxxxxxxxxxxxxxxxxxxxxxxxxxxxx
 
 
                         No user defined ionic velocities
 
                           -------------------------------
                                   Details of Species
                           -------------------------------
 
                               Mass of species in AMU
                                    Al   26.9820004
                                    Si   28.0849991
                                    Te  127.5999985
 
                          Electric Quadrupole Moment (Barn)
                                    Al    0.1466000 Isotope 27
                                    Si    1.0000000 No Isotope Defined
                                    Te    1.0000000 No Isotope Defined
 
                          Files used for pseudopotentials:
                                    Al 1|1.6|5|7|9|30N:31L:32N[]
                                    Si 1|1.6|6|7|9|30N:31L:32N[]
                                    Te 2|2.2|4.8|7.4|9.2|50N:51N[]
 
                           -------------------------------
                              k-Points For BZ Sampling
                           -------------------------------
                       MP grid size for SCF calculation is  2  2  2
                            with an offset of   0.250  0.250  0.000
                       Number of kpoints used =             2
 
                           -------------------------------
                               Symmetry and Constraints
                           -------------------------------
 
                      Maximum deviation from symmetry = 0.457252E-14     ANG
 
                      Number of symmetry operations   =          12
         There are no ionic constraints specified or generated for this cell
                      Point group of crystal =    20: D3d, -3m, -3 2/m
                      Space group of crystal =   162: P-31m, -P 3 2
 
             Set iprint > 1 for details on symmetry rotations/translations
 
                         Centre of mass is NOT constrained
 
                         Number of cell constraints= 4
                         Cell constraints are:  1 1 3 0 0 0
 
                         External pressure/stress (GPa)
                          0.00000   0.00000   0.00000
                                    0.00000   0.00000
                                              0.00000
  
+---------------- MEMORY AND SCRATCH DISK ESTIMATES PER PROCESS --------------+
|                                                     Memory          Disk    |
| Baseline code, static data and system overhead        0.0 MB         0.0 MB |
| BLAS internal memory storage                          0.0 MB         0.0 MB |
| Model and support data                               10.2 MB         0.0 MB |
| Electronic energy minimisation requirements           1.1 MB         0.0 MB |
| Force calculation requirements                        1.4 MB         0.0 MB |
| Stress calculation requirements                       1.7 MB         0.0 MB |
|                                               ----------------------------- |
| Approx. total storage required per process           11.8 MB         0.0 MB |
|                                                                             |
| Requirements will fluctuate during execution and may exceed these estimates |
+-----------------------------------------------------------------------------+
Calculating finite basis set correction with  3 cut-off energies.
Calculating total energy with cut-off of  270.000eV.
------------------------------------------------------------------------ <-- SCF
SCF loop      Energy                           Energy gain       Timer   <-- SCF
                                               per atom          (sec)   <-- SCF
------------------------------------------------------------------------ <-- SCF
Initial  -1.79857977E+003                                         24.80  <-- SCF
      1  -3.99362440E+003                    2.19504463E+002      24.94  <-- SCF
      2  -4.24695304E+003                    2.53328638E+001      24.98  <-- SCF
      3  -4.26675453E+003                    1.98014989E+000      25.03  <-- SCF
      4  -4.26733351E+003                    5.78975660E-002      25.16  <-- SCF
      5  -4.26723384E+003                   -9.96649863E-003      25.28  <-- SCF
      6  -4.26723565E+003                    1.80269294E-004      25.39  <-- SCF
      7  -4.26723692E+003                    1.26821479E-004      25.50  <-- SCF
      8  -4.26723763E+003                    7.14962612E-005      25.61  <-- SCF
      9  -4.26723784E+003                    2.12286012E-005      25.69  <-- SCF
     10  -4.26723785E+003                    9.32715040E-007      25.78  <-- SCF
     11  -4.26723786E+003                    5.27998846E-007      25.86  <-- SCF
     12  -4.26723786E+003                    2.84447382E-008      25.94  <-- SCF
     13  -4.26723786E+003                    1.35662602E-008      26.02  <-- SCF
------------------------------------------------------------------------ <-- SCF
 
Final energy =  -4267.237858140     eV
(energy not corrected for finite basis set)
 
Calculating total energy with cut-off of  275.000eV.
------------------------------------------------------------------------ <-- SCF
SCF loop      Energy                           Energy gain       Timer   <-- SCF
                                               per atom          (sec)   <-- SCF
------------------------------------------------------------------------ <-- SCF
Initial  -4.26723785E+003                                         26.14  <-- SCF
      1  -4.26726343E+003                    2.55720743E-003      26.19  <-- SCF
      2  -4.26726343E+003                    5.81154453E-007      26.27  <-- SCF
      3  -4.26726346E+003                    2.41053663E-006      26.36  <-- SCF
      4  -4.26726347E+003                    9.35794154E-007      26.44  <-- SCF
      5  -4.26726347E+003                    1.04423901E-007      26.52  <-- SCF
      6  -4.26726347E+003                    1.72749169E-008      26.61  <-- SCF
------------------------------------------------------------------------ <-- SCF
 
Final energy =  -4267.263466870     eV
(energy not corrected for finite basis set)
 
Calculating total energy with cut-off of  280.000eV.
------------------------------------------------------------------------ <-- SCF
SCF loop      Energy                           Energy gain       Timer   <-- SCF
                                               per atom          (sec)   <-- SCF
------------------------------------------------------------------------ <-- SCF
Initial  -4.26726346E+003                                         26.72  <-- SCF
      1  -4.26729009E+003                    2.66242534E-003      26.77  <-- SCF
      2  -4.26729009E+003                    5.32677957E-007      26.84  <-- SCF
      3  -4.26729012E+003                    2.54784765E-006      26.94  <-- SCF
      4  -4.26729013E+003                    9.71793792E-007      27.02  <-- SCF
      5  -4.26729013E+003                    1.18080803E-007      27.09  <-- SCF
      6  -4.26729013E+003                    2.27700365E-008      27.17  <-- SCF
------------------------------------------------------------------------ <-- SCF
 
Final energy =  -4267.290129299     eV
(energy not corrected for finite basis set)
 
 For future reference: finite basis dEtot/dlog(Ecut) =      -1.284485eV
 Total energy corrected for finite basis set =   -4267.285517 eV
 
+---------------- MEMORY AND SCRATCH DISK ESTIMATES PER PROCESS --------------+
|                                                     Memory          Disk    |
| Model and support data                               20.9 MB         0.0 MB |
| Electronic energy minimisation requirements           1.0 MB         0.0 MB |
| Geometry minimisation requirements                    1.2 MB         0.0 MB |
|                                               ----------------------------- |
| Approx. total storage required per process           23.2 MB         0.0 MB |
|                                                                             |
| Requirements will fluctuate during execution and may exceed these estimates |
+-----------------------------------------------------------------------------+
 
 
 *********************************** Forces ***********************************
 *                                                                            *
 *                        Cartesian components (eV/A)                         *
 * -------------------------------------------------------------------------- *
 *                   x                    y                    z              *
 *                                                                            *
 * Al        1     -0.00000              0.00000              0.00000         *
 * Al        2      0.00000              0.00000             -0.00000         *
 * Si        1     -0.00000             -0.00000              0.19231         *
 * Si        2      0.00000              0.00000             -0.19231         *
 * Te        1     -0.00000             -0.18067              0.12650         *
 * Te        2      0.15647              0.09034              0.12650         *
 * Te        3     -0.15647              0.09034              0.12650         *
 * Te        4      0.15647             -0.09034             -0.12650         *
 * Te        5     -0.15647             -0.09034             -0.12650         *
 * Te        6      0.00000              0.18067             -0.12650         *
 *                                                                            *
 ******************************************************************************
 
 ***************** Stress Tensor *****************
 *                                               *
 *          Cartesian components (GPa)           *
 * --------------------------------------------- *
 *             x             y             z     *
 *                                               *
 *  x     -1.379040      0.000000      0.000000  *
 *  y      0.000000     -1.379040      0.000000  *
 *  z      0.000000      0.000000     -0.622587  *
 *                                               *
 *  Pressure:    1.1269                          *
 *                                               *
 *************************************************
 BFGS: finished iteration     0 with enthalpy= -4.26729013E+003 eV
  
 +-----------+-----------------+-----------------+------------+-----+ <-- BFGS
 | Parameter |      value      |    tolerance    |    units   | OK? | <-- BFGS
 +-----------+-----------------+-----------------+------------+-----+ <-- BFGS
 |  dE/ion   |   0.000000E+000 |   5.000000E-006 |         eV | No  | <-- BFGS
 |  |F|max   |   2.205577E-001 |   1.000000E-002 |       eV/A | No  | <-- BFGS
 |  |dR|max  |   0.000000E+000 |   5.000000E-004 |          A | No  | <-- BFGS
 |   Smax    |   1.379040E+000 |   2.000000E-002 |        GPa | No  | <-- BFGS
 +-----------+-----------------+-----------------+------------+-----+ <-- BFGS
  

================================================================================
 Starting BFGS iteration          1 ...
================================================================================
  
 +------------+-------------+-------------+-----------------+ <-- min BFGS
 |    Step    |   lambda    |   F.delta'  |    enthalpy     | <-- min BFGS
 +------------+-------------+-------------+-----------------+ <-- min BFGS
 |  previous  |    0.000000 |    0.156773 |    -4267.290129 | <-- min BFGS
 +------------+-------------+-------------+-----------------+ <-- min BFGS
  

--------------------------------------------------------------------------------
 BFGS: starting iteration         1 with trial guess (lambda=  1.000000)
--------------------------------------------------------------------------------
 
                           -------------------------------
                                      Unit Cell
                           -------------------------------
        Real Lattice(A)              Reciprocal Lattice(1/A)
   5.9500889  -3.4352854   0.0000000        1.0559818  -0.0000000   0.0000000
   0.0000000   6.8705708   0.0000000        0.5279909   0.9145070   0.0000000
   0.0000000   0.0000000   7.6341761        0.0000000   0.0000000   0.8230338
 
                       Lattice parameters(A)       Cell Angles
                    a =    6.870571          alpha =   90.000000
                    b =    6.870571          beta  =   90.000000
                    c =    7.634176          gamma =  120.000000
 
                Current cell volume =  312.088987 A**3
 
                           -------------------------------
                                     Cell Contents
                           -------------------------------
 
            xxxxxxxxxxxxxxxxxxxxxxxxxxxxxxxxxxxxxxxxxxxxxxxxxxxxxxxxxxxx
            x  Element    Atom        Fractional coordinates of atoms  x
            x            Number           u          v          w      x
            x----------------------------------------------------------x
            x  Al           1         0.666667   0.333333   0.500000   x
            x  Al           2        -0.666667  -0.333333  -0.500000   x
            x  Si           1         0.000000   0.000000   0.349007   x
            x  Si           2         0.000000   0.000000  -0.349007   x
            x  Te           1        -0.000000   0.644836   0.730944   x
            x  Te           2        -0.644836  -0.644836   0.730944   x
            x  Te           3         0.644836   0.000000   0.730944   x
            x  Te           4        -0.644836   0.000000  -0.730944   x
            x  Te           5         0.644836   0.644836  -0.730944   x
            x  Te           6        -0.000000  -0.644836  -0.730944   x
            xxxxxxxxxxxxxxxxxxxxxxxxxxxxxxxxxxxxxxxxxxxxxxxxxxxxxxxxxxxx
 
 
------------------------------------------------------------------------ <-- SCF
SCF loop      Energy                           Energy gain       Timer   <-- SCF
                                               per atom          (sec)   <-- SCF
------------------------------------------------------------------------ <-- SCF
Initial  -4.26728635E+003                                         27.59  <-- SCF
      1  -4.26731511E+003                    2.87550667E-003      27.64  <-- SCF
      2  -4.26731592E+003                    8.19460434E-005      27.75  <-- SCF
      3  -4.26729701E+003                   -1.89097318E-003      27.84  <-- SCF
      4  -4.26729388E+003                   -3.13696456E-004      27.95  <-- SCF
      5  -4.26729384E+003                   -3.96094915E-006      28.06  <-- SCF
      6  -4.26729368E+003                   -1.59471825E-005      28.16  <-- SCF
      7  -4.26729370E+003                    2.26935122E-006      28.25  <-- SCF
      8  -4.26729370E+003                    1.43316188E-007      28.33  <-- SCF
      9  -4.26729370E+003                    8.18822475E-008      28.42  <-- SCF
------------------------------------------------------------------------ <-- SCF
 
Final energy =  -4267.293703719     eV
(energy not corrected for finite basis set)
 
 
 *********************************** Forces ***********************************
 *                                                                            *
 *                        Cartesian components (eV/A)                         *
 * -------------------------------------------------------------------------- *
 *                   x                    y                    z              *
 *                                                                            *
 * Al        1     -0.00000              0.00000             -0.00000         *
 * Al        2      0.00000              0.00000              0.00000         *
 * Si        1     -0.00000              0.00000              0.18203         *
 * Si        2      0.00000             -0.00000             -0.18203         *
 * Te        1      0.00000             -0.16439              0.11275         *
 * Te        2      0.14236              0.08219              0.11275         *
 * Te        3     -0.14236              0.08219              0.11275         *
 * Te        4      0.14236             -0.08219             -0.11275         *
 * Te        5     -0.14236             -0.08219             -0.11275         *
 * Te        6     -0.00000              0.16439             -0.11275         *
 *                                                                            *
 ******************************************************************************
 
 ***************** Stress Tensor *****************
 *                                               *
 *          Cartesian components (GPa)           *
 * --------------------------------------------- *
 *             x             y             z     *
 *                                               *
 *  x     -1.214280     -0.000000      0.000000  *
 *  y     -0.000000     -1.214280      0.000000  *
 *  z      0.000000      0.000000     -0.547324  *
 *                                               *
 *  Pressure:    0.9920                          *
 *                                               *
 *************************************************
  
 +------------+-------------+-------------+-----------------+ <-- min BFGS
 |    Step    |   lambda    |   F.delta'  |    enthalpy     | <-- min BFGS
 +------------+-------------+-------------+-----------------+ <-- min BFGS
 |  previous  |    0.000000 |    0.156773 |    -4267.290129 | <-- min BFGS
 | trial step |    1.000000 |    0.138557 |    -4267.293704 | <-- min BFGS
 +------------+-------------+-------------+-----------------+ <-- min BFGS
  

--------------------------------------------------------------------------------
 BFGS: improving iteration         1 with line minimization (lambda=  8.606459)
--------------------------------------------------------------------------------
 
+---------------- MEMORY AND SCRATCH DISK ESTIMATES PER PROCESS --------------+
|                                                     Memory          Disk    |
| Model and support data                               20.9 MB         0.0 MB |
| Electronic energy minimisation requirements           1.0 MB         0.0 MB |
| Geometry minimisation requirements                    1.2 MB         0.0 MB |
|                                               ----------------------------- |
| Approx. total storage required per process           23.2 MB         0.0 MB |
|                                                                             |
| Requirements will fluctuate during execution and may exceed these estimates |
+-----------------------------------------------------------------------------+
 
 
                           -------------------------------
                                      Unit Cell
                           -------------------------------
        Real Lattice(A)              Reciprocal Lattice(1/A)
   5.9916601  -3.4592866   0.0000000        1.0486552  -0.0000000   0.0000000
   0.0000000   6.9185731   0.0000000        0.5243276   0.9081620   0.0000000
   0.0000000   0.0000000   7.6582681        0.0000000   0.0000000   0.8204447
 
                       Lattice parameters(A)       Cell Angles
                    a =    6.918573          alpha =   90.000000
                    b =    6.918573          beta  =   90.000000
                    c =    7.658268          gamma =  120.000000
 
                Current cell volume =  317.463839 A**3
 
                           -------------------------------
                                     Cell Contents
                           -------------------------------
 
            xxxxxxxxxxxxxxxxxxxxxxxxxxxxxxxxxxxxxxxxxxxxxxxxxxxxxxxxxxxx
            x  Element    Atom        Fractional coordinates of atoms  x
            x            Number           u          v          w      x
            x----------------------------------------------------------x
            x  Al           1         0.666667   0.333333   0.500000   x
            x  Al           2        -0.666667  -0.333333  -0.500000   x
            x  Si           1         0.000000   0.000000   0.349221   x
            x  Si           2         0.000000   0.000000  -0.349221   x
            x  Te           1        -0.000000   0.644613   0.731085   x
            x  Te           2        -0.644613  -0.644613   0.731085   x
            x  Te           3         0.644613   0.000000   0.731085   x
            x  Te           4        -0.644613   0.000000  -0.731085   x
            x  Te           5         0.644613   0.644613  -0.731085   x
            x  Te           6        -0.000000  -0.644613  -0.731085   x
            xxxxxxxxxxxxxxxxxxxxxxxxxxxxxxxxxxxxxxxxxxxxxxxxxxxxxxxxxxxx
 
 
------------------------------------------------------------------------ <-- SCF
SCF loop      Energy                           Energy gain       Timer   <-- SCF
                                               per atom          (sec)   <-- SCF
------------------------------------------------------------------------ <-- SCF
Initial  -4.26717939E+003                                         28.80  <-- SCF
      1  -4.26851607E+003                    1.33668069E-001      28.84  <-- SCF
      2  -4.26856020E+003                    4.41356352E-003      28.95  <-- SCF
      3  -4.26749735E+003                   -1.06285603E-001      29.05  <-- SCF
      4  -4.26730994E+003                   -1.87408765E-002      29.16  <-- SCF
      5  -4.26730914E+003                   -7.99446494E-005      29.25  <-- SCF
      6  -4.26729862E+003                   -1.05124725E-003      29.36  <-- SCF
      7  -4.26729942E+003                    7.97688213E-005      29.47  <-- SCF
      8  -4.26729959E+003                    1.69534112E-005      29.56  <-- SCF
      9  -4.26729960E+003                    1.17240796E-006      29.67  <-- SCF
     10  -4.26729961E+003                    3.98639714E-007      29.75  <-- SCF
     11  -4.26729961E+003                    2.56992588E-007      29.83  <-- SCF
     12  -4.26729961E+003                   -1.80742197E-010      29.91  <-- SCF
------------------------------------------------------------------------ <-- SCF
 
Final energy =  -4267.299610417     eV
(energy not corrected for finite basis set)
 
 
 *********************************** Forces ***********************************
 *                                                                            *
 *                        Cartesian components (eV/A)                         *
 * -------------------------------------------------------------------------- *
 *                   x                    y                    z              *
 *                                                                            *
 * Al        1     -0.00000              0.00000              0.00000         *
 * Al        2      0.00000             -0.00000             -0.00000         *
 * Si        1      0.00000              0.00000              0.10987         *
 * Si        2      0.00000             -0.00000             -0.10987         *
 * Te        1      0.00000             -0.05190              0.01085         *
 * Te        2      0.04495              0.02595              0.01085         *
 * Te        3     -0.04495              0.02595              0.01085         *
 * Te        4      0.04495             -0.02595             -0.01085         *
 * Te        5     -0.04495             -0.02595             -0.01085         *
 * Te        6     -0.00000              0.05190             -0.01085         *
 *                                                                            *
 ******************************************************************************
 
 ***************** Stress Tensor *****************
 *                                               *
 *          Cartesian components (GPa)           *
 * --------------------------------------------- *
 *             x             y             z     *
 *                                               *
 *  x     -0.035260      0.000000      0.000000  *
 *  y      0.000000     -0.035260      0.000000  *
 *  z      0.000000      0.000000     -0.026416  *
 *                                               *
 *  Pressure:    0.0323                          *
 *                                               *
 *************************************************
  
 +------------+-------------+-------------+-----------------+ <-- min BFGS
 |    Step    |   lambda    |   F.delta'  |    enthalpy     | <-- min BFGS
 +------------+-------------+-------------+-----------------+ <-- min BFGS
 |  previous  |    0.000000 |    0.156773 |    -4267.290129 | <-- min BFGS
 | trial step |    1.000000 |    0.138557 |    -4267.293704 | <-- min BFGS
 |  line step |    8.606459 |    0.007222 |    -4267.299610 | <-- min BFGS
 +------------+-------------+-------------+-----------------+ <-- min BFGS
  
 BFGS: finished iteration     1 with enthalpy= -4.26729961E+003 eV
  
 +-----------+-----------------+-----------------+------------+-----+ <-- BFGS
 | Parameter |      value      |    tolerance    |    units   | OK? | <-- BFGS
 +-----------+-----------------+-----------------+------------+-----+ <-- BFGS
 |  dE/ion   |   9.481118E-004 |   5.000000E-006 |         eV | No  | <-- BFGS
 |  |F|max   |   1.098680E-001 |   1.000000E-002 |       eV/A | No  | <-- BFGS
 |  |dR|max  |   2.132771E-003 |   5.000000E-004 |          A | No  | <-- BFGS
 |   Smax    |   3.525977E-002 |   2.000000E-002 |        GPa | No  | <-- BFGS
 +-----------+-----------------+-----------------+------------+-----+ <-- BFGS
  

================================================================================
 Starting BFGS iteration          2 ...
================================================================================
  
 +------------+-------------+-------------+-----------------+ <-- min BFGS
 |    Step    |   lambda    |   F.delta'  |    enthalpy     | <-- min BFGS
 +------------+-------------+-------------+-----------------+ <-- min BFGS
 |  previous  |    0.000000 |    0.010173 |    -4267.299610 | <-- min BFGS
 +------------+-------------+-------------+-----------------+ <-- min BFGS
  

--------------------------------------------------------------------------------
 BFGS: starting iteration         2 with trial guess (lambda=  1.000000)
--------------------------------------------------------------------------------
 
                           -------------------------------
                                      Unit Cell
                           -------------------------------
        Real Lattice(A)              Reciprocal Lattice(1/A)
   5.9938550  -3.4605538  -0.0000000        1.0482712  -0.0000000   0.0000000
   0.0000000   6.9211076   0.0000000        0.5241356   0.9078294   0.0000000
  -0.0000000   0.0000000   7.6595974        0.0000000  -0.0000000   0.8203023
 
                       Lattice parameters(A)       Cell Angles
                    a =    6.921108          alpha =   90.000000
                    b =    6.921108          beta  =   90.000000
                    c =    7.659597          gamma =  120.000000
 
                Current cell volume =  317.751621 A**3
 
                           -------------------------------
                                     Cell Contents
                           -------------------------------
 
            xxxxxxxxxxxxxxxxxxxxxxxxxxxxxxxxxxxxxxxxxxxxxxxxxxxxxxxxxxxx
            x  Element    Atom        Fractional coordinates of atoms  x
            x            Number           u          v          w      x
            x----------------------------------------------------------x
            x  Al           1         0.666667   0.333333   0.500000   x
            x  Al           2        -0.666667  -0.333333  -0.500000   x
            x  Si           1         0.000000   0.000000   0.349248   x
            x  Si           2         0.000000   0.000000  -0.349248   x
            x  Te           1        -0.000000   0.644593   0.731094   x
            x  Te           2        -0.644593  -0.644593   0.731094   x
            x  Te           3         0.644593   0.000000   0.731094   x
            x  Te           4        -0.644593   0.000000  -0.731094   x
            x  Te           5         0.644593   0.644593  -0.731094   x
            x  Te           6        -0.000000  -0.644593  -0.731094   x
            xxxxxxxxxxxxxxxxxxxxxxxxxxxxxxxxxxxxxxxxxxxxxxxxxxxxxxxxxxxx
 
 
------------------------------------------------------------------------ <-- SCF
SCF loop      Energy                           Energy gain       Timer   <-- SCF
                                               per atom          (sec)   <-- SCF
------------------------------------------------------------------------ <-- SCF
Initial  -4.26729309E+003                                         30.30  <-- SCF
      1  -4.26730245E+003                    9.35807174E-004      30.34  <-- SCF
      2  -4.26730259E+003                    1.37919732E-005      30.45  <-- SCF
      3  -4.26729949E+003                   -3.09315660E-004      30.55  <-- SCF
      4  -4.26729897E+003                   -5.27490288E-005      30.66  <-- SCF
      5  -4.26729896E+003                   -6.21482932E-007      30.75  <-- SCF
      6  -4.26729893E+003                   -2.77841406E-006      30.84  <-- SCF
      7  -4.26729894E+003                    3.37960684E-007      30.92  <-- SCF
      8  -4.26729894E+003                    1.50093672E-007      30.98  <-- SCF
------------------------------------------------------------------------ <-- SCF
 
Final energy =  -4267.298937509     eV
(energy not corrected for finite basis set)
 
 
 *********************************** Forces ***********************************
 *                                                                            *
 *                        Cartesian components (eV/A)                         *
 * -------------------------------------------------------------------------- *
 *                   x                    y                    z              *
 *                                                                            *
 * Al        1     -0.00000              0.00000             -0.00000         *
 * Al        2      0.00000              0.00000              0.00000         *
 * Si        1      0.00000              0.00000              0.10182         *
 * Si        2      0.00000             -0.00000             -0.10182         *
 * Te        1      0.00000             -0.04552              0.00614         *
 * Te        2      0.03942              0.02276              0.00614         *
 * Te        3     -0.03942              0.02276              0.00614         *
 * Te        4      0.03942             -0.02276             -0.00614         *
 * Te        5     -0.03942             -0.02276             -0.00614         *
 * Te        6     -0.00000              0.04552             -0.00614         *
 *                                                                            *
 ******************************************************************************
 
 ***************** Stress Tensor *****************
 *                                               *
 *          Cartesian components (GPa)           *
 * --------------------------------------------- *
 *             x             y             z     *
 *                                               *
 *  x      0.023957     -0.000000      0.000000  *
 *  y     -0.000000      0.023957     -0.000000  *
 *  z      0.000000     -0.000000     -0.001326  *
 *                                               *
 *  Pressure:   -0.0155                          *
 *                                               *
 *************************************************
  
 +------------+-------------+-------------+-----------------+ <-- min BFGS
 |    Step    |   lambda    |   F.delta'  |    enthalpy     | <-- min BFGS
 +------------+-------------+-------------+-----------------+ <-- min BFGS
 |  previous  |    0.000000 |    0.010173 |    -4267.299610 | <-- min BFGS
 | trial step |    1.000000 |    0.003214 |    -4267.298938 | <-- min BFGS
 +------------+-------------+-------------+-----------------+ <-- min BFGS
  
 BFGS: Warning - trial step suggests complex energy landscape
                 in which simple line minimization will fail.
  
               - This is usually an indication that the forces/streses
                 are not accurate enough. Consider making the following changes:
  
                 1) Increase cutoff_energy or basis_precision
                 2) Reduce elec_energy_tol and/or elec_force_tol
                 3) Increase grid_scale
  
               - Proceeding with a bisection search to find root instead.
  

--------------------------------------------------------------------------------
 BFGS: improving iteration         2 with bisection search (lambda=  0.500000)
--------------------------------------------------------------------------------
 
                           -------------------------------
                                      Unit Cell
                           -------------------------------
        Real Lattice(A)              Reciprocal Lattice(1/A)
   5.9927575  -3.4599202  -0.0000000        1.0484631  -0.0000000   0.0000000
   0.0000000   6.9198404   0.0000000        0.5242316   0.9079957   0.0000000
  -0.0000000   0.0000000   7.6589327        0.0000000  -0.0000000   0.8203735
 
                       Lattice parameters(A)       Cell Angles
                    a =    6.919840          alpha =   90.000000
                    b =    6.919840          beta  =   90.000000
                    c =    7.658933          gamma =  120.000000
 
                Current cell volume =  317.607709 A**3
 
                           -------------------------------
                                     Cell Contents
                           -------------------------------
 
            xxxxxxxxxxxxxxxxxxxxxxxxxxxxxxxxxxxxxxxxxxxxxxxxxxxxxxxxxxxx
            x  Element    Atom        Fractional coordinates of atoms  x
            x            Number           u          v          w      x
            x----------------------------------------------------------x
            x  Al           1         0.666667   0.333333   0.500000   x
            x  Al           2        -0.666667  -0.333333  -0.500000   x
            x  Si           1         0.000000   0.000000   0.349235   x
            x  Si           2         0.000000   0.000000  -0.349235   x
            x  Te           1        -0.000000   0.644603   0.731089   x
            x  Te           2        -0.644603  -0.644603   0.731089   x
            x  Te           3         0.644603   0.000000   0.731089   x
            x  Te           4        -0.644603   0.000000  -0.731089   x
            x  Te           5         0.644603   0.644603  -0.731089   x
            x  Te           6        -0.000000  -0.644603  -0.731089   x
            xxxxxxxxxxxxxxxxxxxxxxxxxxxxxxxxxxxxxxxxxxxxxxxxxxxxxxxxxxxx
 
 
------------------------------------------------------------------------ <-- SCF
SCF loop      Energy                           Energy gain       Timer   <-- SCF
                                               per atom          (sec)   <-- SCF
------------------------------------------------------------------------ <-- SCF
Initial  -4.26730201E+003                                         31.36  <-- SCF
      1  -4.26730016E+003                   -1.84746645E-004      31.41  <-- SCF
      2  -4.26730020E+003                    3.52681514E-006      31.52  <-- SCF
      3  -4.26729943E+003                   -7.68614992E-005      31.61  <-- SCF
      4  -4.26729929E+003                   -1.33194465E-005      31.70  <-- SCF
      5  -4.26729929E+003                   -2.53741626E-007      31.80  <-- SCF
      6  -4.26729929E+003                   -5.95636644E-007      31.88  <-- SCF
      7  -4.26729929E+003                    2.72870214E-007      31.95  <-- SCF
      8  -4.26729929E+003                   -1.24474529E-007      32.03  <-- SCF
------------------------------------------------------------------------ <-- SCF
 
Final energy =  -4267.299287536     eV
(energy not corrected for finite basis set)
 
 
 *********************************** Forces ***********************************
 *                                                                            *
 *                        Cartesian components (eV/A)                         *
 * -------------------------------------------------------------------------- *
 *                   x                    y                    z              *
 *                                                                            *
 * Al        1     -0.00000              0.00000              0.00000         *
 * Al        2      0.00000              0.00000             -0.00000         *
 * Si        1      0.00000              0.00000              0.10582         *
 * Si        2      0.00000              0.00000             -0.10582         *
 * Te        1      0.00000             -0.05020              0.00736         *
 * Te        2      0.04347              0.02510              0.00736         *
 * Te        3     -0.04347              0.02510              0.00736         *
 * Te        4      0.04347             -0.02510             -0.00736         *
 * Te        5     -0.04347             -0.02510             -0.00736         *
 * Te        6     -0.00000              0.05020             -0.00736         *
 *                                                                            *
 ******************************************************************************
 
 ***************** Stress Tensor *****************
 *                                               *
 *          Cartesian components (GPa)           *
 * --------------------------------------------- *
 *             x             y             z     *
 *                                               *
 *  x     -0.005270      0.000000      0.000000  *
 *  y      0.000000     -0.005270      0.000000  *
 *  z      0.000000      0.000000     -0.015779  *
 *                                               *
 *  Pressure:    0.0088                          *
 *                                               *
 *************************************************
  
 +------------+-------------+-------------+-----------------+ <-- min BFGS
 |    Step    |   lambda    |   F.delta'  |    enthalpy     | <-- min BFGS
 +------------+-------------+-------------+-----------------+ <-- min BFGS
 |  previous  |    0.000000 |    0.010173 |    -4267.299610 | <-- min BFGS
 | trial step |    0.500000 |    0.006753 |    -4267.299288 | <-- min BFGS
 +------------+-------------+-------------+-----------------+ <-- min BFGS
  

--------------------------------------------------------------------------------
 BFGS: improving iteration         2 with bisection search (lambda=  0.250000)
--------------------------------------------------------------------------------
 
                           -------------------------------
                                      Unit Cell
                           -------------------------------
        Real Lattice(A)              Reciprocal Lattice(1/A)
   5.9922088  -3.4596034  -0.0000000        1.0485591  -0.0000000   0.0000000
   0.0000000   6.9192067   0.0000000        0.5242796   0.9080789   0.0000000
  -0.0000000   0.0000000   7.6586004        0.0000000  -0.0000000   0.8204091
 
                       Lattice parameters(A)       Cell Angles
                    a =    6.919207          alpha =   90.000000
                    b =    6.919207          beta  =   90.000000
                    c =    7.658600          gamma =  120.000000
 
                Current cell volume =  317.535769 A**3
 
                           -------------------------------
                                     Cell Contents
                           -------------------------------
 
            xxxxxxxxxxxxxxxxxxxxxxxxxxxxxxxxxxxxxxxxxxxxxxxxxxxxxxxxxxxx
            x  Element    Atom        Fractional coordinates of atoms  x
            x            Number           u          v          w      x
            x----------------------------------------------------------x
            x  Al           1         0.666667   0.333333   0.500000   x
            x  Al           2        -0.666667  -0.333333  -0.500000   x
            x  Si           1         0.000000   0.000000   0.349228   x
            x  Si           2         0.000000   0.000000  -0.349228   x
            x  Te           1        -0.000000   0.644608   0.731087   x
            x  Te           2        -0.644608  -0.644608   0.731087   x
            x  Te           3         0.644608   0.000000   0.731087   x
            x  Te           4        -0.644608   0.000000  -0.731087   x
            x  Te           5         0.644608   0.644608  -0.731087   x
            x  Te           6        -0.000000  -0.644608  -0.731087   x
            xxxxxxxxxxxxxxxxxxxxxxxxxxxxxxxxxxxxxxxxxxxxxxxxxxxxxxxxxxxx
 
 
------------------------------------------------------------------------ <-- SCF
SCF loop      Energy                           Energy gain       Timer   <-- SCF
                                               per atom          (sec)   <-- SCF
------------------------------------------------------------------------ <-- SCF
Initial  -4.26730081E+003                                         32.44  <-- SCF
      1  -4.26729972E+003                   -1.09830528E-004      32.48  <-- SCF
      2  -4.26729972E+003                    8.39204348E-007      32.58  <-- SCF
      3  -4.26729950E+003                   -2.27723046E-005      32.67  <-- SCF
      4  -4.26729945E+003                   -4.16739858E-006      32.80  <-- SCF
      5  -4.26729945E+003                   -6.91828847E-008      32.88  <-- SCF
      6  -4.26729945E+003                   -1.58471927E-007      32.97  <-- SCF
------------------------------------------------------------------------ <-- SCF
 
Final energy =  -4267.299451990     eV
(energy not corrected for finite basis set)
 
 
 *********************************** Forces ***********************************
 *                                                                            *
 *                        Cartesian components (eV/A)                         *
 * -------------------------------------------------------------------------- *
 *                   x                    y                    z              *
 *                                                                            *
 * Al        1     -0.00000             -0.00000              0.00000         *
 * Al        2      0.00000              0.00000              0.00000         *
 * Si        1     -0.00000              0.00000              0.10704         *
 * Si        2      0.00000              0.00000             -0.10704         *
 * Te        1      0.00000             -0.05207              0.01040         *
 * Te        2      0.04509              0.02604              0.01040         *
 * Te        3     -0.04509              0.02604              0.01040         *
 * Te        4      0.04509             -0.02604             -0.01040         *
 * Te        5     -0.04509             -0.02604             -0.01040         *
 * Te        6     -0.00000              0.05207             -0.01040         *
 *                                                                            *
 ******************************************************************************
 
 ***************** Stress Tensor *****************
 *                                               *
 *          Cartesian components (GPa)           *
 * --------------------------------------------- *
 *             x             y             z     *
 *                                               *
 *  x     -0.019681     -0.000000      0.000000  *
 *  y     -0.000000     -0.019681      0.000000  *
 *  z      0.000000      0.000000     -0.021453  *
 *                                               *
 *  Pressure:    0.0203                          *
 *                                               *
 *************************************************
  
 +------------+-------------+-------------+-----------------+ <-- min BFGS
 |    Step    |   lambda    |   F.delta'  |    enthalpy     | <-- min BFGS
 +------------+-------------+-------------+-----------------+ <-- min BFGS
 |  previous  |    0.000000 |    0.010173 |    -4267.299610 | <-- min BFGS
 | trial step |    0.250000 |    0.008483 |    -4267.299452 | <-- min BFGS
 +------------+-------------+-------------+-----------------+ <-- min BFGS
  

--------------------------------------------------------------------------------
 BFGS: improving iteration         2 with bisection search (lambda=  0.125000)
--------------------------------------------------------------------------------
 
                           -------------------------------
                                      Unit Cell
                           -------------------------------
        Real Lattice(A)              Reciprocal Lattice(1/A)
   5.9919344  -3.4594450  -0.0000000        1.0486072  -0.0000000   0.0000000
   0.0000000   6.9188899   0.0000000        0.5243036   0.9081204   0.0000000
  -0.0000000   0.0000000   7.6584342        0.0000000  -0.0000000   0.8204269
 
                       Lattice parameters(A)       Cell Angles
                    a =    6.918890          alpha =   90.000000
                    b =    6.918890          beta  =   90.000000
                    c =    7.658434          gamma =  120.000000
 
                Current cell volume =  317.499803 A**3
 
                           -------------------------------
                                     Cell Contents
                           -------------------------------
 
            xxxxxxxxxxxxxxxxxxxxxxxxxxxxxxxxxxxxxxxxxxxxxxxxxxxxxxxxxxxx
            x  Element    Atom        Fractional coordinates of atoms  x
            x            Number           u          v          w      x
            x----------------------------------------------------------x
            x  Al           1         0.666667   0.333333   0.500000   x
            x  Al           2        -0.666667  -0.333333  -0.500000   x
            x  Si           1         0.000000   0.000000   0.349224   x
            x  Si           2         0.000000   0.000000  -0.349224   x
            x  Te           1        -0.000000   0.644610   0.731086   x
            x  Te           2        -0.644610  -0.644610   0.731086   x
            x  Te           3         0.644610   0.000000   0.731086   x
            x  Te           4        -0.644610   0.000000  -0.731086   x
            x  Te           5         0.644610   0.644610  -0.731086   x
            x  Te           6        -0.000000  -0.644610  -0.731086   x
            xxxxxxxxxxxxxxxxxxxxxxxxxxxxxxxxxxxxxxxxxxxxxxxxxxxxxxxxxxxx
 
 
------------------------------------------------------------------------ <-- SCF
SCF loop      Energy                           Energy gain       Timer   <-- SCF
                                               per atom          (sec)   <-- SCF
------------------------------------------------------------------------ <-- SCF
Initial  -4.26730021E+003                                         33.31  <-- SCF
      1  -4.26729961E+003                   -6.01680001E-005      33.36  <-- SCF
      2  -4.26729961E+003                    2.05036516E-007      33.45  <-- SCF
      3  -4.26729955E+003                   -6.67258357E-006      33.55  <-- SCF
      4  -4.26729953E+003                   -1.44153255E-006      33.64  <-- SCF
      5  -4.26729953E+003                    1.06019181E-008      33.72  <-- SCF
      6  -4.26729953E+003                   -3.50245430E-008      33.80  <-- SCF
------------------------------------------------------------------------ <-- SCF
 
Final energy =  -4267.299532258     eV
(energy not corrected for finite basis set)
 
 
 *********************************** Forces ***********************************
 *                                                                            *
 *                        Cartesian components (eV/A)                         *
 * -------------------------------------------------------------------------- *
 *                   x                    y                    z              *
 *                                                                            *
 * Al        1      0.00000              0.00000             -0.00000         *
 * Al        2     -0.00000              0.00000              0.00000         *
 * Si        1      0.00000              0.00000              0.10778         *
 * Si        2     -0.00000             -0.00000             -0.10778         *
 * Te        1      0.00000             -0.05240              0.01113         *
 * Te        2      0.04538              0.02620              0.01113         *
 * Te        3     -0.04538              0.02620              0.01113         *
 * Te        4      0.04538             -0.02620             -0.01113         *
 * Te        5     -0.04538             -0.02620             -0.01113         *
 * Te        6     -0.00000              0.05240             -0.01113         *
 *                                                                            *
 ******************************************************************************
 
 ***************** Stress Tensor *****************
 *                                               *
 *          Cartesian components (GPa)           *
 * --------------------------------------------- *
 *             x             y             z     *
 *                                               *
 *  x     -0.027195     -0.000000      0.000000  *
 *  y     -0.000000     -0.027195     -0.000000  *
 *  z      0.000000     -0.000000     -0.022917  *
 *                                               *
 *  Pressure:    0.0258                          *
 *                                               *
 *************************************************
  
 +------------+-------------+-------------+-----------------+ <-- min BFGS
 |    Step    |   lambda    |   F.delta'  |    enthalpy     | <-- min BFGS
 +------------+-------------+-------------+-----------------+ <-- min BFGS
 |  previous  |    0.000000 |    0.010173 |    -4267.299610 | <-- min BFGS
 | trial step |    0.125000 |    0.009296 |    -4267.299532 | <-- min BFGS
 +------------+-------------+-------------+-----------------+ <-- min BFGS
  

--------------------------------------------------------------------------------
 BFGS: improving iteration         2 with bisection search (lambda=  0.062500)
--------------------------------------------------------------------------------
 
                           -------------------------------
                                      Unit Cell
                           -------------------------------
        Real Lattice(A)              Reciprocal Lattice(1/A)
   5.9917972  -3.4593658  -0.0000000        1.0486312  -0.0000000   0.0000000
   0.0000000   6.9187315   0.0000000        0.5243156   0.9081412   0.0000000
  -0.0000000   0.0000000   7.6583511        0.0000000  -0.0000000   0.8204358
 
                       Lattice parameters(A)       Cell Angles
                    a =    6.918732          alpha =   90.000000
                    b =    6.918732          beta  =   90.000000
                    c =    7.658351          gamma =  120.000000
 
                Current cell volume =  317.481820 A**3
 
                           -------------------------------
                                     Cell Contents
                           -------------------------------
 
            xxxxxxxxxxxxxxxxxxxxxxxxxxxxxxxxxxxxxxxxxxxxxxxxxxxxxxxxxxxx
            x  Element    Atom        Fractional coordinates of atoms  x
            x            Number           u          v          w      x
            x----------------------------------------------------------x
            x  Al           1         0.666667   0.333333   0.500000   x
            x  Al           2        -0.666667  -0.333333  -0.500000   x
            x  Si           1         0.000000   0.000000   0.349223   x
            x  Si           2         0.000000   0.000000  -0.349223   x
            x  Te           1        -0.000000   0.644611   0.731086   x
            x  Te           2        -0.644611  -0.644611   0.731086   x
            x  Te           3         0.644611   0.000000   0.731086   x
            x  Te           4        -0.644611   0.000000  -0.731086   x
            x  Te           5         0.644611   0.644611  -0.731086   x
            x  Te           6        -0.000000  -0.644611  -0.731086   x
            xxxxxxxxxxxxxxxxxxxxxxxxxxxxxxxxxxxxxxxxxxxxxxxxxxxxxxxxxxxx
 
 
------------------------------------------------------------------------ <-- SCF
SCF loop      Energy                           Energy gain       Timer   <-- SCF
                                               per atom          (sec)   <-- SCF
------------------------------------------------------------------------ <-- SCF
Initial  -4.26729991E+003                                         34.17  <-- SCF
      1  -4.26729960E+003                   -3.15719273E-005      34.20  <-- SCF
      2  -4.26729960E+003                    7.59001217E-008      34.28  <-- SCF
      3  -4.26729958E+003                   -2.13697400E-006      34.38  <-- SCF
      4  -4.26729957E+003                   -2.64250969E-007      34.47  <-- SCF
      5  -4.26729957E+003                   -2.47493840E-008      34.55  <-- SCF
------------------------------------------------------------------------ <-- SCF
 
Final energy =  -4267.299572418     eV
(energy not corrected for finite basis set)
 
 
 *********************************** Forces ***********************************
 *                                                                            *
 *                        Cartesian components (eV/A)                         *
 * -------------------------------------------------------------------------- *
 *                   x                    y                    z              *
 *                                                                            *
 * Al        1     -0.00000             -0.00000              0.00000         *
 * Al        2      0.00000              0.00000             -0.00000         *
 * Si        1      0.00000              0.00000              0.10719         *
 * Si        2     -0.00000              0.00000             -0.10719         *
 * Te        1      0.00000             -0.05420              0.00759         *
 * Te        2      0.04694              0.02710              0.00759         *
 * Te        3     -0.04694              0.02710              0.00759         *
 * Te        4      0.04694             -0.02710             -0.00759         *
 * Te        5     -0.04694             -0.02710             -0.00759         *
 * Te        6     -0.00000              0.05420             -0.00759         *
 *                                                                            *
 ******************************************************************************
 
 ***************** Stress Tensor *****************
 *                                               *
 *          Cartesian components (GPa)           *
 * --------------------------------------------- *
 *             x             y             z     *
 *                                               *
 *  x     -0.032943     -0.000000      0.000000  *
 *  y     -0.000000     -0.032943     -0.000000  *
 *  z      0.000000     -0.000000     -0.032029  *
 *                                               *
 *  Pressure:    0.0326                          *
 *                                               *
 *************************************************
  
 +------------+-------------+-------------+-----------------+ <-- min BFGS
 |    Step    |   lambda    |   F.delta'  |    enthalpy     | <-- min BFGS
 +------------+-------------+-------------+-----------------+ <-- min BFGS
 |  previous  |    0.000000 |    0.010173 |    -4267.299610 | <-- min BFGS
 | trial step |    0.062500 |    0.010045 |    -4267.299572 | <-- min BFGS
 +------------+-------------+-------------+-----------------+ <-- min BFGS
  

--------------------------------------------------------------------------------
 BFGS: improving iteration         2 with bisection search (lambda=  0.031250)
--------------------------------------------------------------------------------
 
                           -------------------------------
                                      Unit Cell
                           -------------------------------
        Real Lattice(A)              Reciprocal Lattice(1/A)
   5.9917287  -3.4593262  -0.0000000        1.0486432  -0.0000000   0.0000000
   0.0000000   6.9186523   0.0000000        0.5243216   0.9081516   0.0000000
  -0.0000000   0.0000000   7.6583096        0.0000000  -0.0000000   0.8204402
 
                       Lattice parameters(A)       Cell Angles
                    a =    6.918652          alpha =   90.000000
                    b =    6.918652          beta  =   90.000000
                    c =    7.658310          gamma =  120.000000
 
                Current cell volume =  317.472830 A**3
 
                           -------------------------------
                                     Cell Contents
                           -------------------------------
 
            xxxxxxxxxxxxxxxxxxxxxxxxxxxxxxxxxxxxxxxxxxxxxxxxxxxxxxxxxxxx
            x  Element    Atom        Fractional coordinates of atoms  x
            x            Number           u          v          w      x
            x----------------------------------------------------------x
            x  Al           1         0.666667   0.333333   0.500000   x
            x  Al           2        -0.666667  -0.333333  -0.500000   x
            x  Si           1         0.000000   0.000000   0.349222   x
            x  Si           2         0.000000   0.000000  -0.349222   x
            x  Te           1        -0.000000   0.644612   0.731085   x
            x  Te           2        -0.644612  -0.644612   0.731085   x
            x  Te           3         0.644612   0.000000   0.731085   x
[...]
  
 BFGS: finished iteration    37 with enthalpy= -4.26729884E+003 eV
  
 +-----------+-----------------+-----------------+------------+-----+ <-- BFGS
 | Parameter |      value      |    tolerance    |    units   | OK? | <-- BFGS
 +-----------+-----------------+-----------------+------------+-----+ <-- BFGS
 |  dE/ion   |   4.717606E-005 |   5.000000E-006 |         eV | No  | <-- BFGS
 |  |F|max   |   1.027080E-002 |   1.000000E-002 |       eV/A | No  | <-- BFGS
 |  |dR|max  |   2.238548E-006 |   5.000000E-004 |          A | Yes | <-- BFGS
 |   Smax    |   4.194894E-003 |   2.000000E-002 |        GPa | Yes | <-- BFGS
 +-----------+-----------------+-----------------+------------+-----+ <-- BFGS
  

================================================================================
 Starting BFGS iteration         38 ...
================================================================================
  
 +------------+-------------+-------------+-----------------+ <-- min BFGS
 |    Step    |   lambda    |   F.delta'  |    enthalpy     | <-- min BFGS
 +------------+-------------+-------------+-----------------+ <-- min BFGS
 |  previous  |    0.000000 |    0.000522 |    -4267.298838 | <-- min BFGS
 +------------+-------------+-------------+-----------------+ <-- min BFGS
  

--------------------------------------------------------------------------------
 BFGS: starting iteration        38 with trial guess (lambda=  1.000000)
--------------------------------------------------------------------------------
 
                           -------------------------------
                                      Unit Cell
                           -------------------------------
        Real Lattice(A)              Reciprocal Lattice(1/A)
   5.9867005  -3.4564231   0.0000000        1.0495239  -0.0000000  -0.0000000
   0.0000000   6.9128462  -0.0000000        0.5247620   0.9089144   0.0000000
   0.0000000  -0.0000000   7.6945715       -0.0000000   0.0000000   0.8165738
 
                       Lattice parameters(A)       Cell Angles
                    a =    6.912846          alpha =   90.000000
                    b =    6.912846          beta  =   90.000000
                    c =    7.694571          gamma =  120.000000
 
                Current cell volume =  318.440915 A**3
 
                           -------------------------------
                                     Cell Contents
                           -------------------------------
 
            xxxxxxxxxxxxxxxxxxxxxxxxxxxxxxxxxxxxxxxxxxxxxxxxxxxxxxxxxxxx
            x  Element    Atom        Fractional coordinates of atoms  x
            x            Number           u          v          w      x
            x----------------------------------------------------------x
            x  Al           1         0.666667   0.333333   0.500000   x
            x  Al           2        -0.666667  -0.333333  -0.500000   x
            x  Si           1        -0.000000   0.000000   0.350403   x
            x  Si           2         0.000000   0.000000  -0.350403   x
            x  Te           1        -0.000000   0.643928   0.730371   x
            x  Te           2        -0.643928  -0.643928   0.730371   x
            x  Te           3         0.643928   0.000000   0.730371   x
            x  Te           4        -0.643928   0.000000  -0.730371   x
            x  Te           5         0.643928   0.643928  -0.730371   x
            x  Te           6        -0.000000  -0.643928  -0.730371   x
            xxxxxxxxxxxxxxxxxxxxxxxxxxxxxxxxxxxxxxxxxxxxxxxxxxxxxxxxxxxx
 
 
------------------------------------------------------------------------ <-- SCF
SCF loop      Energy                           Energy gain       Timer   <-- SCF
                                               per atom          (sec)   <-- SCF
------------------------------------------------------------------------ <-- SCF
Initial  -4.26729833E+003                                        130.14  <-- SCF
      1  -4.26729879E+003                    4.69057145E-005     130.19  <-- SCF
      2  -4.26729880E+003                    7.03256518E-008     130.50  <-- SCF
      3  -4.26729878E+003                   -1.41734164E-006     130.70  <-- SCF
      4  -4.26729878E+003                   -2.12776179E-007     130.86  <-- SCF
      5  -4.26729878E+003                   -2.35274987E-008     131.09  <-- SCF
------------------------------------------------------------------------ <-- SCF
 
Final energy =  -4267.298778493     eV
(energy not corrected for finite basis set)
 
 
 *********************************** Forces ***********************************
 *                                                                            *
 *                        Cartesian components (eV/A)                         *
 * -------------------------------------------------------------------------- *
 *                   x                    y                    z              *
 *                                                                            *
 * Al        1      0.00000              0.00000              0.00000         *
 * Al        2     -0.00000              0.00000             -0.00000         *
 * Si        1     -0.00000              0.00000              0.00211         *
 * Si        2      0.00000              0.00000             -0.00211         *
 * Te        1      0.00000             -0.00259             -0.00773         *
 * Te        2      0.00224              0.00129             -0.00773         *
 * Te        3     -0.00224              0.00129             -0.00773         *
 * Te        4      0.00224             -0.00129              0.00773         *
 * Te        5     -0.00224             -0.00129              0.00773         *
 * Te        6      0.00000              0.00259              0.00773         *
 *                                                                            *
 ******************************************************************************
 
 ***************** Stress Tensor *****************
 *                                               *
 *          Cartesian components (GPa)           *
 * --------------------------------------------- *
 *             x             y             z     *
 *                                               *
 *  x     -0.001508      0.000000      0.000000  *
 *  y      0.000000     -0.001508      0.000000  *
 *  z      0.000000      0.000000      0.005697  *
 *                                               *
 *  Pressure:   -0.0009                          *
 *                                               *
 *************************************************
  
 +------------+-------------+-------------+-----------------+ <-- min BFGS
 |    Step    |   lambda    |   F.delta'  |    enthalpy     | <-- min BFGS
 +------------+-------------+-------------+-----------------+ <-- min BFGS
 |  previous  |    0.000000 |    0.000522 |    -4267.298838 | <-- min BFGS
 | trial step |    1.000000 |    0.000042 |    -4267.298778 | <-- min BFGS
 +------------+-------------+-------------+-----------------+ <-- min BFGS
  
 BFGS: Warning - trial step suggests complex energy landscape
                 in which simple line minimization will fail.
  
               - This is usually an indication that the forces/streses
                 are not accurate enough. Consider making the following changes:
  
                 1) Increase cutoff_energy or basis_precision
                 2) Reduce elec_energy_tol and/or elec_force_tol
                 3) Increase grid_scale
  
               - Proceeding with a bisection search to find root instead.
  

--------------------------------------------------------------------------------
 BFGS: improving iteration        38 with bisection search (lambda=  0.500000)
--------------------------------------------------------------------------------
 
                           -------------------------------
                                      Unit Cell
                           -------------------------------
        Real Lattice(A)              Reciprocal Lattice(1/A)
   5.9866164  -3.4563746   0.0000000        1.0495387  -0.0000000  -0.0000000
   0.0000000   6.9127491  -0.0000000        0.5247693   0.9089271   0.0000000
   0.0000000  -0.0000000   7.6945147       -0.0000000   0.0000000   0.8165798
 
                       Lattice parameters(A)       Cell Angles
                    a =    6.912749          alpha =   90.000000
                    b =    6.912749          beta  =   90.000000
                    c =    7.694515          gamma =  120.000000
 
                Current cell volume =  318.429622 A**3
 
                           -------------------------------
                                     Cell Contents
                           -------------------------------
 
            xxxxxxxxxxxxxxxxxxxxxxxxxxxxxxxxxxxxxxxxxxxxxxxxxxxxxxxxxxxx
            x  Element    Atom        Fractional coordinates of atoms  x
            x            Number           u          v          w      x
            x----------------------------------------------------------x
            x  Al           1         0.666667   0.333333   0.500000   x
            x  Al           2        -0.666667  -0.333333  -0.500000   x
            x  Si           1        -0.000000   0.000000   0.350403   x
            x  Si           2         0.000000   0.000000  -0.350403   x
            x  Te           1        -0.000000   0.643928   0.730371   x
            x  Te           2        -0.643928  -0.643928   0.730371   x
            x  Te           3         0.643928   0.000000   0.730371   x
            x  Te           4        -0.643928   0.000000  -0.730371   x
            x  Te           5         0.643928   0.643928  -0.730371   x
            x  Te           6        -0.000000  -0.643928  -0.730371   x
            xxxxxxxxxxxxxxxxxxxxxxxxxxxxxxxxxxxxxxxxxxxxxxxxxxxxxxxxxxxx
 
 
------------------------------------------------------------------------ <-- SCF
SCF loop      Energy                           Energy gain       Timer   <-- SCF
                                               per atom          (sec)   <-- SCF
------------------------------------------------------------------------ <-- SCF
Initial  -4.26729903E+003                                        131.44  <-- SCF
      1  -4.26729881E+003                   -2.19814206E-005     131.45  <-- SCF
      2  -4.26729881E+003                    2.52550290E-008     131.56  <-- SCF
      3  -4.26729881E+003                   -8.44660025E-008     131.62  <-- SCF
      4  -4.26729881E+003                   -5.37752505E-008     131.72  <-- SCF
------------------------------------------------------------------------ <-- SCF
 
Final energy =  -4267.298808194     eV
(energy not corrected for finite basis set)
 
 
 *********************************** Forces ***********************************
 *                                                                            *
 *                        Cartesian components (eV/A)                         *
 * -------------------------------------------------------------------------- *
 *                   x                    y                    z              *
 *                                                                            *
 * Al        1      0.00000             -0.00000             -0.00000         *
 * Al        2     -0.00000              0.00000              0.00000         *
 * Si        1      0.00000             -0.00000             -0.00039         *
 * Si        2      0.00000              0.00000              0.00039         *
 * Te        1     -0.00000             -0.00362             -0.00910         *
 * Te        2      0.00314              0.00181             -0.00910         *
 * Te        3     -0.00314              0.00181             -0.00910         *
 * Te        4      0.00314             -0.00181              0.00910         *
 * Te        5     -0.00314             -0.00181              0.00910         *
 * Te        6      0.00000              0.00362              0.00910         *
 *                                                                            *
 ******************************************************************************
 
 ***************** Stress Tensor *****************
 *                                               *
 *          Cartesian components (GPa)           *
 * --------------------------------------------- *
 *             x             y             z     *
 *                                               *
 *  x     -0.002942      0.000000      0.000000  *
 *  y      0.000000     -0.002942      0.000000  *
 *  z      0.000000      0.000000     -0.002254  *
 *                                               *
 *  Pressure:    0.0027                          *
 *                                               *
 *************************************************
  
 +------------+-------------+-------------+-----------------+ <-- min BFGS
 |    Step    |   lambda    |   F.delta'  |    enthalpy     | <-- min BFGS
 +------------+-------------+-------------+-----------------+ <-- min BFGS
 |  previous  |    0.000000 |    0.000522 |    -4267.298838 | <-- min BFGS
 | trial step |    0.500000 |    0.000389 |    -4267.298808 | <-- min BFGS
 +------------+-------------+-------------+-----------------+ <-- min BFGS
  
 BFGS: finished iteration    38 with enthalpy= -4.26729881E+003 eV
  
 +-----------+-----------------+-----------------+------------+-----+ <-- BFGS
 | Parameter |      value      |    tolerance    |    units   | OK? | <-- BFGS
 +-----------+-----------------+-----------------+------------+-----+ <-- BFGS
 |  dE/ion   |   2.993790E-006 |   5.000000E-006 |         eV | Yes | <-- BFGS
 |  |F|max   |   9.799454E-003 |   1.000000E-002 |       eV/A | Yes | <-- BFGS
 |  |dR|max  |   4.982994E-007 |   5.000000E-004 |          A | Yes | <-- BFGS
 |   Smax    |   2.941596E-003 |   2.000000E-002 |        GPa | Yes | <-- BFGS
 +-----------+-----------------+-----------------+------------+-----+ <-- BFGS
  
 BFGS: Geometry optimization completed successfully.

================================================================================
 BFGS: Final Configuration:
================================================================================
 
                           -------------------------------
                                      Unit Cell
                           -------------------------------
        Real Lattice(A)              Reciprocal Lattice(1/A)
   5.9866164  -3.4563746   0.0000000        1.0495387  -0.0000000  -0.0000000
   0.0000000   6.9127491  -0.0000000        0.5247693   0.9089271   0.0000000
   0.0000000  -0.0000000   7.6945147       -0.0000000   0.0000000   0.8165798
 
                       Lattice parameters(A)       Cell Angles
                    a =    6.912749          alpha =   90.000000
                    b =    6.912749          beta  =   90.000000
                    c =    7.694515          gamma =  120.000000
 
                Current cell volume =  318.429622 A**3
 
                           -------------------------------
                                     Cell Contents
                           -------------------------------
 
            xxxxxxxxxxxxxxxxxxxxxxxxxxxxxxxxxxxxxxxxxxxxxxxxxxxxxxxxxxxx
            x  Element    Atom        Fractional coordinates of atoms  x
            x            Number           u          v          w      x
            x----------------------------------------------------------x
            x  Al           1         0.666667   0.333333   0.500000   x
            x  Al           2        -0.666667  -0.333333  -0.500000   x
            x  Si           1        -0.000000   0.000000   0.350403   x
            x  Si           2         0.000000   0.000000  -0.350403   x
            x  Te           1        -0.000000   0.643928   0.730371   x
            x  Te           2        -0.643928  -0.643928   0.730371   x
            x  Te           3         0.643928   0.000000   0.730371   x
            x  Te           4        -0.643928   0.000000  -0.730371   x
            x  Te           5         0.643928   0.643928  -0.730371   x
            x  Te           6        -0.000000  -0.643928  -0.730371   x
            xxxxxxxxxxxxxxxxxxxxxxxxxxxxxxxxxxxxxxxxxxxxxxxxxxxxxxxxxxxx
 
 
 BFGS: Final Enthalpy     = -4.26729881E+003 eV
 BFGS: Final <frequency>  =    5098.04450 cm-1
 BFGS: Final bulk modulus =     262.92277 GPa
  
  **********************************************************
  *** There were at least    19 warnings during this run ***
  *** => please check the whole of this file carefully!  ***
  **********************************************************
 
 ***************************** Symmetrised Forces *****************************
 *                                                                            *
 *                        Cartesian components (eV/A)                         *
 * -------------------------------------------------------------------------- *
 *                   x                    y                    z              *
 *                                                                            *
 * Al        1      0.00000             -0.00000             -0.00000         *
 * Al        2     -0.00000              0.00000              0.00000         *
 * Si        1      0.00000             -0.00000             -0.00039         *
 * Si        2      0.00000              0.00000              0.00039         *
 * Te        1     -0.00000             -0.00362             -0.00910         *
 * Te        2      0.00314              0.00181             -0.00910         *
 * Te        3     -0.00314              0.00181             -0.00910         *
 * Te        4      0.00314             -0.00181              0.00910         *
 * Te        5     -0.00314             -0.00181              0.00910         *
 * Te        6      0.00000              0.00362              0.00910         *
 *                                                                            *
 ******************************************************************************
 
 *********** Symmetrised Stress Tensor ***********
 *                                               *
 *          Cartesian components (GPa)           *
 * --------------------------------------------- *
 *             x             y             z     *
 *                                               *
 *  x     -0.002942      0.000000      0.000000  *
 *  y      0.000000     -0.002942      0.000000  *
 *  z      0.000000      0.000000     -0.002254  *
 *                                               *
 *  Pressure:    0.0027                          *
 *                                               *
 *************************************************

Writing analysis data to AlSiTe3.castep_bin

Writing model to AlSiTe3.check
 
 A BibTeX formatted list of references used in this run has been written to 
 AlSiTe3.bib
 
Initialisation time =     24.53 s
Calculation time    =    107.33 s
Finalisation time   =      0.28 s
Total time          =    132.14 s
  
Overall parallel efficiency rating: Poor (43%)                                  
  
Data was distributed by:-
G-vector (24-way); efficiency rating: Poor (45%)                                
k-point (2-way); efficiency rating: Very good (80%)                             
  
Parallel notes:
1) Calculation only took 132.0 s, so efficiency estimates may be inaccurate.    
