 Job started on host DESKTOP-95RKRJF
 at Mon May  1 10:49:12 2023

 +-------------------------------------------------+
 |                                                 |
 |      CCC   AA    SSS  TTTTT  EEEEE  PPPP        |
 |     C     A  A  S       T    E      P   P       |
 |     C     AAAA   SS     T    EEE    PPPP        |
 |     C     A  A     S    T    E      P           |
 |      CCC  A  A  SSS     T    EEEEE  P           |
 |                                                 |
 +-------------------------------------------------+
 |                                                 |
 | Materials Studio CASTEP version 2017            |
 | Ab Initio Total Energy Program                  |
 |                                                 |
 | Authors:                                        |
 | M. Segall, M. Probert, C. Pickard, P. Hasnip,   |
 | S. Clark, K. Refson, J. R. Yates, M. Payne      |
 |                                                 |
 | Contributors:                                   |
 | P. Lindan, P. Haynes, J. White, V. Milman,      |
 | N. Govind, M. Gibson, P. Tulip, V. Cocula,      |
 | B. Montanari, D. Quigley, M. Glover,            |
 | L. Bernasconi, A. Perlov, M. Plummer,           |
 | E. McNellis, J. Meyer, J. Gale, D. Jochym       |
 | J. Aarons, B. Walker, R. Gillen, D. Jones       |
 | T. Green, I. J. Bush, C. J. Armstrong,          |
 | E. J. Higgins, E. L. Brown, M. S. McFly         |
 |                                                 |
 | Copyright (c) 2000 - 2016                       |
 |                                                 |
 | Please cite                                     |
 |                                                 |
 |     "First principles methods using CASTEP"     |
 |                                                 |
 |         Zeitschrift fuer Kristallographie       |
 |           220(5-6) pp. 567-570 (2005)           |
 |                                                 |
 | S. J. Clark, M. D. Segall, C. J. Pickard,       |
 | P. J. Hasnip, M. J. Probert, K. Refson,         |
 | M. C. Payne                                     |
 |                                                 |
 |       in all publications arising from          |
 |              your use of CASTEP                 |
 |                                                 |
 +-------------------------------------------------+
 
 
 This version was compiled for x86_64-windows-msvc2008 on May 05 2016
 Intel(R) Math Kernel Library Version 11.1.2 
 Fundamental constants values: CODATA 2010
 
License checkout of MS_castep successful
 
 
 Pseudo atomic calculation performed for H 1s1
 
 Converged in 13 iterations to a total energy of -12.4688 eV
 
 
 Pseudo atomic calculation performed for O 2s2 2p4
 
 Converged in 22 iterations to a total energy of -423.8174 eV
 
 
 Pseudo atomic calculation performed for Si 3s2 3p2
 
 Converged in 15 iterations to a total energy of -101.6421 eV
 
 
 Pseudo atomic calculation performed for Sc 3d1 4s2
 
 Converged in 18 iterations to a total energy of -43.5611 eV
 
 
 Pseudo atomic calculation performed for Te 5s2 5p4
 
 Converged in 16 iterations to a total energy of -217.5984 eV
 
 Calculation parallelised over 48 processes.
 Data is distributed by G-vector(24-way) and k-point(2-way)

 ************************************ Title ************************************
 CASTEP calculation from Materials Studio

 ***************************** General Parameters ******************************
  
 output verbosity                               : normal  (1)
 write checkpoint data to                       : ScSiTe3__0_0_1_.check
 type of calculation                            : geometry optimization
 stress calculation                             : on
 density difference calculation                 : off
 electron localisation func (ELF) calculation   : off
 Hirshfeld analysis                             : on
 unlimited duration calculation
 timing information                             : on
 memory usage estimate                          : on
 write final potential to formatted file        : off
 write final density to formatted file          : off
 write BibTeX reference list                    : on
 write OTFG pseudopotential files               : on
 checkpoint writing                             : both castep_bin and check files
  
 output         length unit                     : A
 output           mass unit                     : amu
 output           time unit                     : ps
 output         charge unit                     : e
 output           spin unit                     : hbar/2
 output         energy unit                     : eV
 output          force unit                     : eV/A
 output       velocity unit                     : A/ps
 output       pressure unit                     : GPa
 output     inv_length unit                     : 1/A
 output      frequency unit                     : cm-1
 output force constant unit                     : eV/A**2
 output         volume unit                     : A**3
 output   IR intensity unit                     : (D/A)**2/amu
 output         dipole unit                     : D
 output         efield unit                     : eV/A/e
 output        entropy unit                     : J/mol/K
  
 wavefunctions paging                           : none
 random number generator seed                   : randomised (104913966)
 data distribution                              : optimal for this architecture
 optimization strategy                          : maximize speed(+++)

 *********************** Exchange-Correlation Parameters ***********************
  
 using functional                               : Perdew Burke Ernzerhof
 relativistic treatment                         : Koelling-Harmon
 DFT+D: Semi-empirical dispersion correction    : off

 ************************* Pseudopotential Parameters **************************
  
 pseudopotential representation                 : reciprocal space
 <beta|phi> representation                      : reciprocal space
 spin-orbit coupling                            : off

 **************************** Basis Set Parameters *****************************
  
 plane wave basis set cut-off                   :   600.0000   eV
 size of standard grid                          :     1.5000
 size of   fine   gmax                          :    18.8237   1/A
 largest prime factor in FFT                    :          5
 finite basis set correction                    : automatic
 number of sample energies                      :          3
           sample  spacing                      :     5.0000   eV

 **************************** Electronic Parameters ****************************
  
 number of  electrons                           :  78.00    
 net charge of system                           :  0.000    
 treating system as non-spin-polarized
 number of bands                                :         47

 ********************* Electronic Minimization Parameters **********************
  
 Method: Treating system as metallic with density mixing treatment of electrons,
         and number of  SD  steps               :          1
         and number of  CG  steps               :          4
  
 total energy / atom convergence tol.           : 0.2000E-05   eV
 eigen-energy convergence tolerance             : 0.7660E-06   eV
 max force / atom convergence tol.              : ignored
 convergence tolerance window                   :          3   cycles
 max. number of SCF cycles                      :       9999
 number of fixed-spin iterations                :         10
 smearing scheme                                : Gaussian
 smearing width                                 : 0.1000       eV
 Fermi energy convergence tolerance             : 0.2721E-13   eV
 periodic dipole correction                     : NONE

 ************************** Density Mixing Parameters **************************
  
 density-mixing scheme                          : Pulay
 max. length of mixing history                  :         20
 charge density mixing amplitude                : 0.5000    
 cut-off energy for mixing                      :  600.0       eV
 charge density mixing g-vector                 :  1.500       1/A

 *********************** Population Analysis Parameters ************************
  
 Population analysis with cutoff                :  3.000       A
 Partial DOS weights calculated

 ********************** Geometry Optimization Parameters ***********************
  
 optimization method                            : Delocalised internal coords
 max. number of steps                           :       9999
 total energy convergence tolerance             : 0.2000E-04   eV/atom
        max ionic |force| tolerance             : 0.5000E-01   eV/A
 max ionic |displacement| tolerance             : 0.2000E-02   A
   max |stress component| tolerance             : 0.1000       GPa
 convergence tolerance window                   :          2   steps
 backup results every                           :          5   steps

 *******************************************************************************
  
 
                           -------------------------------
                                      Unit Cell
                           -------------------------------
        Real Lattice(A)                      Reciprocal Lattice(1/A)
   5.9866628  -3.4564014   0.0000000        1.0495305   0.0000000   0.0000000
   0.0000000   6.9128027   0.0000000        0.5247653   0.9089201   0.0000000
   0.0000000   0.0000000  13.5676159        0.0000000   0.0000000   0.4631017
 
                       Lattice parameters(A)       Cell Angles
                    a =    6.912803          alpha =   90.000000
                    b =    6.912803          beta  =   90.000000
                    c =   13.567616          gamma =  120.000000
 
                       Current cell volume =  561.490612       A**3
 
                           -------------------------------
                                     Cell Contents
                           -------------------------------
                         Total number of ions in cell =   18
                      Total number of species in cell =    5
                        Max number of any one species =    6
 
            xxxxxxxxxxxxxxxxxxxxxxxxxxxxxxxxxxxxxxxxxxxxxxxxxxxxxxxxxxxx
            x  Element    Atom        Fractional coordinates of atoms  x
            x            Number           u          v          w      x
            x----------------------------------------------------------x
            x  H            1         0.072931   1.002599   0.434150   x 
            x  H            2         0.072223   0.657317   0.499972   x 
            x  H            3         0.690124   1.064382   0.480722   x 
            x  H            4         0.356457   0.357671   0.497161   x 
            x  O            1         0.017204   0.681171   0.426358   x 
            x  O            2         0.580413  -0.008231   0.415392   x 
            x  O            3         0.319601   0.355243   0.417397   x 
            x  O            4         0.023351   0.004978   0.356542   x 
            x  Si           1         0.000000   0.000000   0.046766   x 
            x  Si           2         0.000000   0.000000   0.216185   x 
            x  Sc           1         0.666667   0.333333   0.131475   x 
            x  Sc           2         0.333333   0.666667   0.131475   x 
            x  Te           1         0.008409   0.650442   0.271469   x 
            x  Te           2         0.355488   0.355488   0.262951   x 
            x  Te           3         0.644512   0.000000   0.262951   x 
            x  Te           4         0.644512   0.644512   0.000000   x 
            x  Te           5         0.000000   0.355488   0.000000   x 
            x  Te           6         0.355488   0.000000   0.000000   x 
            xxxxxxxxxxxxxxxxxxxxxxxxxxxxxxxxxxxxxxxxxxxxxxxxxxxxxxxxxxxx
 
 
                         No user defined ionic velocities
 
                           -------------------------------
                                   Details of Species
                           -------------------------------
 
                               Mass of species in AMU
                                    H    1.0080000
                                    O   15.9989996
                                    Si   28.0849991
                                    Sc   44.9560013
                                    Te  127.5999985
 
                          Electric Quadrupole Moment (Barn)
                                    H    0.0028600 Isotope  2
                                    O   -0.0255800 Isotope 17
                                    Si    1.0000000 No Isotope Defined
                                    Sc   -0.2200000 Isotope 45
                                    Te    1.0000000 No Isotope Defined
 
                          Files used for pseudopotentials:
                                    H H_00PBE_OP.recpot
                                    O O_00PBE_OP.recpot
                                    Si Si_00PBE_OP.recpot
                                    Sc Sc_00.recpot
                                    Te Te_00.recpot
 
                           -------------------------------
                              k-Points For BZ Sampling
                           -------------------------------
                       MP grid size for SCF calculation is  2  2  1
                            with an offset of   0.000  0.000  0.000
                       Number of kpoints used =             2
 
                           -------------------------------
                               Symmetry and Constraints
                           -------------------------------
 
                      Maximum deviation from symmetry =  0.00000         ANG
 
         There are no symmetry operations specified or generated for this cell
         There are no ionic constraints specified or generated for this cell
                      Point group of crystal =     1: C1, 1, 1
                      Space group of crystal =     1: P1, P 1
 
 
                         Centre of mass is NOT constrained
 
                         Number of cell constraints= 6
                         Cell constraints are:  0 0 0 0 0 0
 
                         External pressure/stress (GPa)
                          0.00000   0.00000   0.00000
                                    0.00000   0.00000
                                              0.00000
  
+---------------- MEMORY AND SCRATCH DISK ESTIMATES PER PROCESS --------------+
|                                                     Memory          Disk    |
| Baseline code, static data and system overhead        0.0 MB         0.0 MB |
| BLAS internal memory storage                          0.0 MB         0.0 MB |
| Model and support data                               20.5 MB         0.0 MB |
| Electronic energy minimisation requirements           3.2 MB         0.0 MB |
| Force calculation requirements                        1.3 MB         0.0 MB |
| Stress calculation requirements                       1.5 MB         0.0 MB |
|                                               ----------------------------- |
| Approx. total storage required per process           23.8 MB         0.0 MB |
|                                                                             |
| Requirements will fluctuate during execution and may exceed these estimates |
+-----------------------------------------------------------------------------+
Calculating finite basis set correction with  3 cut-off energies.
Calculating total energy with cut-off of  590.000eV.
------------------------------------------------------------------------ <-- SCF
SCF loop      Energy           Fermi           Energy gain       Timer   <-- SCF
                               energy          per atom          (sec)   <-- SCF
------------------------------------------------------------------------ <-- SCF
Initial  -3.83619087E+002  0.00000000E+000                         0.92  <-- SCF
      1  -2.95059866E+003  4.10596530E+000   1.42609976E+002       1.34  <-- SCF
      2  -3.37606742E+003 -2.94296391E+000   2.36371532E+001       1.83  <-- SCF
      3  -3.42641624E+003 -2.73261344E+000   2.79715686E+000       2.30  <-- SCF
      4  -3.42916853E+003 -2.76596787E+000   1.52904930E-001       2.83  <-- SCF
      5  -3.42199206E+003 -2.27916519E+000  -3.98692848E-001       3.22  <-- SCF
      6  -3.42177163E+003 -2.33646902E+000  -1.22460009E-002       3.66  <-- SCF
      7  -3.42176319E+003 -2.27029506E+000  -4.69156649E-004       4.11  <-- SCF
      8  -3.42170999E+003 -2.17422153E+000  -2.95541651E-003       4.62  <-- SCF
      9  -3.42171120E+003 -2.14568580E+000   6.72280065E-005       5.09  <-- SCF
     10  -3.42170541E+003 -2.10867571E+000  -3.21620478E-004       5.73  <-- SCF
     11  -3.42167994E+003 -2.01139450E+000  -1.41524262E-003       6.27  <-- SCF
     12  -3.42167393E+003 -1.98507608E+000  -3.33834126E-004       6.83  <-- SCF
     13  -3.42167065E+003 -1.93981331E+000  -1.81874636E-004       7.20  <-- SCF
     14  -3.42167431E+003 -1.87120149E+000   2.03334619E-004       7.69  <-- SCF
     15  -3.42168208E+003 -1.84966696E+000   4.31358891E-004       8.20  <-- SCF
     16  -3.42168444E+003 -1.84762466E+000   1.30906076E-004       8.56  <-- SCF
     17  -3.42168508E+003 -1.84017661E+000   3.60197410E-005       8.92  <-- SCF
     18  -3.42168511E+003 -1.83830694E+000   1.24849808E-006       9.27  <-- SCF
     19  -3.42168515E+003 -1.83877336E+000   2.52712464E-006       9.59  <-- SCF
     20  -3.42168518E+003 -1.83879792E+000   1.70217407E-006      10.08  <-- SCF
     21  -3.42168519E+003 -1.83873825E+000   4.68590644E-007      10.45  <-- SCF
     22  -3.42168519E+003 -1.83879281E+000   1.78357694E-007      10.75  <-- SCF
------------------------------------------------------------------------ <-- SCF
 
Final energy, E             =  -3421.621582891     eV
Final free energy (E-TS)    =  -3421.685194245     eV
(energies not corrected for finite basis set)
 
NB est. 0K energy (E-0.5TS)      =  -3421.653388568     eV
 
Calculating total energy with cut-off of  595.000eV.
------------------------------------------------------------------------ <-- SCF
SCF loop      Energy           Fermi           Energy gain       Timer   <-- SCF
                               energy          per atom          (sec)   <-- SCF
------------------------------------------------------------------------ <-- SCF
Initial  -3.42162158E+003  0.00000000E+000                        10.89  <-- SCF
      1  -3.42172752E+003 -1.83938824E+000   5.88551688E-003      11.25  <-- SCF
      2  -3.42172753E+003 -1.83938819E+000   2.53280890E-007      11.56  <-- SCF
      3  -3.42172754E+003 -1.83864599E+000   8.57961522E-007      11.83  <-- SCF
      4  -3.42172755E+003 -1.83874812E+000   1.96373522E-007      12.11  <-- SCF
------------------------------------------------------------------------ <-- SCF
 
Final energy, E             =  -3421.663937486     eV
Final free energy (E-TS)    =  -3421.727545997     eV
(energies not corrected for finite basis set)
 
NB est. 0K energy (E-0.5TS)      =  -3421.695741741     eV
 
Calculating total energy with cut-off of  600.000eV.
------------------------------------------------------------------------ <-- SCF
SCF loop      Energy           Fermi           Energy gain       Timer   <-- SCF
                               energy          per atom          (sec)   <-- SCF
------------------------------------------------------------------------ <-- SCF
Initial  -3.42166271E+003  0.00000000E+000                        12.23  <-- SCF
      1  -3.42177495E+003 -1.83943338E+000   6.23550342E-003      12.56  <-- SCF
      2  -3.42177495E+003 -1.83943329E+000   2.39526033E-007      12.91  <-- SCF
      3  -3.42177501E+003 -1.83859376E+000   3.45679789E-006      13.25  <-- SCF
      4  -3.42177495E+003 -1.83890913E+000  -3.42113881E-006      13.58  <-- SCF
      5  -3.42177496E+003 -1.83896014E+000   3.84119576E-007      13.89  <-- SCF
      6  -3.42177496E+003 -1.83895561E+000   1.00236169E-008      14.12  <-- SCF
------------------------------------------------------------------------ <-- SCF
 
Final energy, E             =  -3421.711316608     eV
Final free energy (E-TS)    =  -3421.774959842     eV
(energies not corrected for finite basis set)
 
NB est. 0K energy (E-0.5TS)      =  -3421.743138225     eV
 
 For future reference: finite basis dEtot/dlog(Ecut) =      -5.091444eV
 Total energy corrected for finite basis set =   -3421.774501 eV
 
+---------------- MEMORY AND SCRATCH DISK ESTIMATES PER PROCESS --------------+
|                                                     Memory          Disk    |
| Model and support data                               24.2 MB         0.0 MB |
| Electronic energy minimisation requirements           3.2 MB         0.0 MB |
| Geometry minimisation requirements                    0.0 MB         0.0 MB |
|                                               ----------------------------- |
| Approx. total storage required per process           27.5 MB         0.0 MB |
|                                                                             |
| Requirements will fluctuate during execution and may exceed these estimates |
+-----------------------------------------------------------------------------+
 
 
 *********************************** Forces ***********************************
 *                                                                            *
 *                        Cartesian components (eV/A)                         *
 * -------------------------------------------------------------------------- *
 *                   x                    y                    z              *
 *                                                                            *
 * H         1     -0.81812              0.35978             -4.16780         *
 * H         2     -0.67363              0.21411             -4.05140         *
 * H         3     -1.55245             -0.38979             -3.89870         *
 * H         4      0.25354              0.33511             -4.01841         *
 * O         1      0.42293             -0.40869              3.48317         *
 * O         2      1.27418              0.29296              2.02565         *
 * O         3      0.01445              0.14667              3.56987         *
 * O         4     -0.17274             -0.28536              2.27078         *
 * Si        1     -0.04469              0.04190             -0.29400         *
 * Si        2      0.62777             -0.31992              2.81573         *
 * Sc        1      0.05523              0.17910              0.17168         *
 * Sc        2     -0.17674              0.01273              0.17401         *
 * Te        1      0.09549             -0.31196              0.51047         *
 * Te        2      0.32533             -0.03588              0.56245         *
 * Te        3      0.35468              0.15748              1.57683         *
 * Te        4      0.34566              0.18108             -0.23916         *
 * Te        5     -0.03696             -0.35357             -0.20980         *
 * Te        6     -0.29394              0.18426             -0.28137         *
 *                                                                            *
 ******************************************************************************
Message: Generating delocalized internals

Total number of primitive bonds:             27
Total number of primitive angles:            77
Total number of primitive dihedrals:        229

Total number of primitive internals:        333

Message: Generation of delocalized internals is successful
 
 DI: finished iteration   0  with energy= -3.42177496E+003 eV
  
 +-----------+-----------------+-----------------+------------+-----+ <-- DI
 | Parameter |      value      |    tolerance    |    units   | OK? | <-- DI
 +-----------+-----------------+-----------------+------------+-----+ <-- DI
 |  dE/ion   |   0.000000E+000 |   2.000000E-005 |         eV | No  | <-- DI
 |  |F|max   |   4.262551E+000 |   5.000000E-002 |       eV/A | No  | <-- DI
 |  |dR|max  |   0.000000E+000 |   2.000000E-003 |          A | No  | <-- DI
 +-----------+-----------------+-----------------+------------+-----+ <-- DI
  

================================================================================
 Starting DI iteration    1 ...
================================================================================

 Startup Hessian in Internal Coordinates

 The size of active space is :    51
 There are :     51  degrees of freedom
 There are :    117  primitive internals


--------------------------------------------------------------------------------
 DI: structure has been updated on iteration   1
--------------------------------------------------------------------------------
 
                           -------------------------------
                                     Cell Contents
                           -------------------------------
 
            xxxxxxxxxxxxxxxxxxxxxxxxxxxxxxxxxxxxxxxxxxxxxxxxxxxxxxxxxxxx
            x  Element    Atom        Fractional coordinates of atoms  x
            x            Number           u          v          w      x
            x----------------------------------------------------------x
            x  H            1         0.057278   0.994156   0.434959   x
            x  H            2         0.076323   0.614249   0.492166   x
            x  H            3         0.685847   1.071760   0.472572   x
            x  H            4         0.406965   0.401747   0.492370   x
            x  O            1         0.014260   0.654331   0.427771   x
            x  O            2         0.570175  -0.005151   0.413491   x
            x  O            3         0.346179   0.385473   0.418614   x
            x  O            4         0.009869  -0.000367   0.360715   x
            x  Si           1        -0.002851   0.001020   0.051543   x
            x  Si           2        -0.002728  -0.001154   0.221591   x
            x  Sc           1         0.662538   0.333475   0.131335   x
            x  Sc           2         0.329021   0.666174   0.131588   x
            x  Te           1         0.003932   0.644994   0.272788   x
            x  Te           2         0.355513   0.359124   0.264300   x
            x  Te           3         0.639505   0.000170   0.263162   x
            x  Te           4         0.643853   0.648255   0.000832   x
            x  Te           5        -0.004078   0.353101   0.000577   x
            x  Te           6         0.349112  -0.000295   0.000593   x
            xxxxxxxxxxxxxxxxxxxxxxxxxxxxxxxxxxxxxxxxxxxxxxxxxxxxxxxxxxxx
 
 
------------------------------------------------------------------------ <-- SCF
SCF loop      Energy           Fermi           Energy gain       Timer   <-- SCF
                               energy          per atom          (sec)   <-- SCF
------------------------------------------------------------------------ <-- SCF
Initial  -3.31932118E+003  0.00000000E+000                        14.36  <-- SCF
      1  -3.40905588E+003 -2.36078179E+000   4.98526082E+000      14.72  <-- SCF
      2  -3.42282826E+003 -1.81408211E+000   7.65132178E-001      15.05  <-- SCF
      3  -3.42309798E+003 -1.81094694E+000   1.49845474E-002      15.55  <-- SCF
      4  -3.42313823E+003 -1.76583709E+000   2.23634367E-003      16.05  <-- SCF
      5  -3.42316653E+003 -1.76807317E+000   1.57226269E-003      16.53  <-- SCF
      6  -3.42317250E+003 -1.77331852E+000   3.31472391E-004      17.00  <-- SCF
      7  -3.42317300E+003 -1.77637221E+000   2.74734958E-005      17.48  <-- SCF
      8  -3.42317420E+003 -1.77658160E+000   6.70393761E-005      17.95  <-- SCF
      9  -3.42317486E+003 -1.77619349E+000   3.67077963E-005      18.39  <-- SCF
     10  -3.42317560E+003 -1.77749975E+000   4.11087837E-005      18.75  <-- SCF
     11  -3.42317607E+003 -1.77836211E+000   2.56822968E-005      19.09  <-- SCF
     12  -3.42317642E+003 -1.77907672E+000   1.94859868E-005      19.48  <-- SCF
     13  -3.42317660E+003 -1.77977202E+000   9.99844772E-006      19.80  <-- SCF
     14  -3.42317667E+003 -1.78050149E+000   4.11566797E-006      20.12  <-- SCF
     15  -3.42317668E+003 -1.78123548E+000   7.38136935E-007      20.48  <-- SCF
     16  -3.42317669E+003 -1.78182789E+000   3.13450305E-007      20.77  <-- SCF
------------------------------------------------------------------------ <-- SCF
 
Final energy, E             =  -3423.114387720     eV
Final free energy (E-TS)    =  -3423.176689262     eV
(energies not corrected for finite basis set)
 
NB est. 0K energy (E-0.5TS)      =  -3423.145538491     eV
 
 
 *********************************** Forces ***********************************
 *                                                                            *
 *                        Cartesian components (eV/A)                         *
 * -------------------------------------------------------------------------- *
 *                   x                    y                    z              *
 *                                                                            *
 * H         1     -0.53243              0.31190             -3.43668         *
 * H         2     -0.53309              0.60210             -3.37945         *
 * H         3     -1.31910             -0.36379             -3.10547         *
 * H         4     -0.15299             -0.00119             -3.43812         *
 * O         1      0.25259             -0.40581              2.35661         *
 * O         2      1.11878              0.25526              1.22637         *
 * O         3      0.02692              0.24902              2.55871         *
 * O         4     -0.17222             -0.16389              1.89537         *
 * Si        1     -0.03658              0.01479             -0.31001         *
 * Si        2      0.68237             -0.31723              3.09419         *
 * Sc        1      0.04524              0.18715              0.08991         *
 * Sc        2     -0.20787             -0.01258              0.13237         *
 * Te        1      0.18175             -0.38741              0.57626         *
 * Te        2      0.32222             -0.13309              0.67786         *
 * Te        3      0.30991              0.15406              1.57440         *
 * Te        4      0.30410              0.15720             -0.14986         *
 * Te        5     -0.03657             -0.30830             -0.14331         *
 * Te        6     -0.25304              0.16182             -0.21913         *
 *                                                                            *
 ******************************************************************************
 DI: finished iteration   1  with energy= -3.42317669E+003 eV
  
 +-----------+-----------------+-----------------+------------+-----+ <-- DI
 | Parameter |      value      |    tolerance    |    units   | OK? | <-- DI
 +-----------+-----------------+-----------------+------------+-----+ <-- DI
 |  dE/ion   |   7.787386E-002 |   2.000000E-005 |         eV | No  | <-- DI
 |  |F|max   |   3.491639E+000 |   5.000000E-002 |       eV/A | No  | <-- DI
 |  |dR|max  |   3.355370E-001 |   2.000000E-003 |          A | No  | <-- DI
 +-----------+-----------------+-----------------+------------+-----+ <-- DI
  

================================================================================
 Starting DI iteration    2 ...
================================================================================

--------------------------------------------------------------------------------
 DI: structure has been updated on iteration   2
--------------------------------------------------------------------------------
 
                           -------------------------------
                                     Cell Contents
                           -------------------------------
 
            xxxxxxxxxxxxxxxxxxxxxxxxxxxxxxxxxxxxxxxxxxxxxxxxxxxxxxxxxxxx
            x  Element    Atom        Fractional coordinates of atoms  x
            x            Number           u          v          w      x
            x----------------------------------------------------------x
            x  H            1         0.049931   0.989620   0.435556   x
            x  H            2         0.085262   0.593618   0.481913   x
            x  H            3         0.681607   1.079996   0.464069   x
            x  H            4         0.437970   0.418594   0.485484   x
            x  O            1         0.015142   0.642047   0.427832   x
            x  O            2         0.561021  -0.000398   0.411729   x
            x  O            3         0.359947   0.398090   0.419076   x
            x  O            4         0.001241  -0.003036   0.365568   x
            x  Si           1        -0.004896   0.001401   0.057077   x
            x  Si           2        -0.004933  -0.001759   0.227975   x
            x  Sc           1         0.659599   0.333383   0.131729   x
            x  Sc           2         0.326023   0.665607   0.132430   x
            x  Te           1         0.000644   0.640898   0.274119   x
            x  Te           2         0.355957   0.361472   0.265907   x
            x  Te           3         0.635208   0.000543   0.264247   x
            x  Te           4         0.644278   0.651784   0.002360   x
            x  Te           5        -0.006754   0.350153   0.001976   x
            x  Te           6         0.343469  -0.000951   0.001919   x
            xxxxxxxxxxxxxxxxxxxxxxxxxxxxxxxxxxxxxxxxxxxxxxxxxxxxxxxxxxxx
 
 
------------------------------------------------------------------------ <-- SCF
SCF loop      Energy           Fermi           Energy gain       Timer   <-- SCF
                               energy          per atom          (sec)   <-- SCF
------------------------------------------------------------------------ <-- SCF
Initial  -3.38384185E+003  0.00000000E+000                        20.98  <-- SCF
      1  -3.41851476E+003 -1.97821199E+000   1.92627276E+000      21.33  <-- SCF
      2  -3.42431866E+003 -1.72554251E+000   3.22439074E-001      22.17  <-- SCF
      3  -3.42432853E+003 -1.70955228E+000   5.48001991E-004      22.88  <-- SCF
      4  -3.42438032E+003 -1.70255852E+000   2.87724701E-003      23.50  <-- SCF
      5  -3.42438372E+003 -1.69849671E+000   1.88690358E-004      24.23  <-- SCF
      6  -3.42438581E+003 -1.70339066E+000   1.16249079E-004      25.62  <-- SCF
      7  -3.42438655E+003 -1.70406004E+000   4.10551494E-005      26.25  <-- SCF
      8  -3.42438696E+003 -1.70396420E+000   2.30500406E-005      26.73  <-- SCF
      9  -3.42438759E+003 -1.70623045E+000   3.48121376E-005      27.03  <-- SCF
     10  -3.42438792E+003 -1.70838002E+000   1.82893556E-005      27.62  <-- SCF
     11  -3.42438831E+003 -1.71074162E+000   2.16639459E-005      28.34  <-- SCF
     12  -3.42438878E+003 -1.71333348E+000   2.63835737E-005      28.58  <-- SCF
     13  -3.42438915E+003 -1.71554394E+000   2.05010032E-005      28.92  <-- SCF
     14  -3.42438925E+003 -1.71773108E+000   5.34536445E-006      29.48  <-- SCF
     15  -3.42438926E+003 -1.71849421E+000   6.08844779E-007      30.16  <-- SCF
     16  -3.42438927E+003 -1.71882266E+000   3.85594245E-007      30.69  <-- SCF
------------------------------------------------------------------------ <-- SCF
 
Final energy, E             =  -3424.327039205     eV
Final free energy (E-TS)    =  -3424.389265723     eV
(energies not corrected for finite basis set)
 
NB est. 0K energy (E-0.5TS)      =  -3424.358152464     eV
 
 
 *********************************** Forces ***********************************
 *                                                                            *
 *                        Cartesian components (eV/A)                         *
 * -------------------------------------------------------------------------- *
 *                   x                    y                    z              *
 *                                                                            *
 * H         1     -0.15589              0.10044             -2.18182         *
 * H         2     -0.22280              0.39079             -2.29404         *
 * H         3     -0.72733             -0.26713             -1.98532         *
 * H         4     -0.03905             -0.13345             -2.30931         *
 * O         1     -0.09198             -0.13305              1.18712         *
 * O         2      0.68162              0.11104              0.26617         *
 * O         3     -0.21005              0.35048              1.44811         *
 * O         4     -0.51624              0.18125              0.68365         *
 * Si        1     -0.02255             -0.00016             -0.30534         *
 * Si        2      0.70985             -0.31881              3.27359         *
 * Sc        1      0.03760              0.20001              0.02346         *
 * Sc        2     -0.22723             -0.04590              0.09771         *
 * Te        1      0.21863             -0.43522              0.48733         *
 * Te        2      0.33305             -0.18516              0.55771         *
 * Te        3      0.23585              0.15235              1.40903         *
 * Te        4      0.26118              0.13981             -0.08335         *
 * Te        5     -0.04291             -0.25628             -0.10079         *
 * Te        6     -0.22174              0.14900             -0.17392         *
 *                                                                            *
 ******************************************************************************
 DI: finished iteration   2  with energy= -3.42438927E+003 eV
  
 +-----------+-----------------+-----------------+------------+-----+ <-- DI
 | Parameter |      value      |    tolerance    |    units   | OK? | <-- DI
 +-----------+-----------------+-----------------+------------+-----+ <-- DI
 |  dE/ion   |   6.736536E-002 |   2.000000E-005 |         eV | No  | <-- DI
 |  |F|max   |   3.364806E+000 |   5.000000E-002 |       eV/A | No  | <-- DI
 |  |dR|max  |   2.287469E-001 |   2.000000E-003 |          A | No  | <-- DI
 +-----------+-----------------+-----------------+------------+-----+ <-- DI
  

================================================================================
 Starting DI iteration    3 ...
================================================================================

--------------------------------------------------------------------------------
 DI: structure has been updated on iteration   3
--------------------------------------------------------------------------------
 
                           -------------------------------
                                     Cell Contents
                           -------------------------------
 
            xxxxxxxxxxxxxxxxxxxxxxxxxxxxxxxxxxxxxxxxxxxxxxxxxxxxxxxxxxxx
            x  Element    Atom        Fractional coordinates of atoms  x
            x            Number           u          v          w      x
            x----------------------------------------------------------x
            x  H            1         0.043898   0.986937   0.436975   x
            x  H            2         0.090690   0.577958   0.473570   x
            x  H            3         0.681241   1.086493   0.458456   x
            x  H            4         0.460040   0.430375   0.480063   x
            x  O            1         0.015058   0.631868   0.427260   x
            x  O            2         0.556790   0.003855   0.410415   x
            x  O            3         0.369815   0.407354   0.419136   x
            x  O            4        -0.006350  -0.004369   0.369401   x
            x  Si           1        -0.006402   0.001431   0.061504   x
            x  Si           2        -0.006480  -0.001824   0.233154   x
            x  Sc           1         0.657214   0.333223   0.131829   x
            x  Sc           2         0.323775   0.665151   0.132978   x
            x  Te           1        -0.002018   0.637838   0.274808   x
            x  Te           2         0.356424   0.363320   0.267024   x
            x  Te           3         0.632138   0.000981   0.264936   x
            x  Te           4         0.644750   0.654662   0.003509   x
            x  Te           5        -0.008788   0.347453   0.003096   x
            x  Te           6         0.338919  -0.001645   0.002853   x
            xxxxxxxxxxxxxxxxxxxxxxxxxxxxxxxxxxxxxxxxxxxxxxxxxxxxxxxxxxxx
 
 
------------------------------------------------------------------------ <-- SCF
SCF loop      Energy           Fermi           Energy gain       Timer   <-- SCF
                               energy          per atom          (sec)   <-- SCF
------------------------------------------------------------------------ <-- SCF
Initial  -3.40228196E+003  0.00000000E+000                        31.09  <-- SCF
      1  -3.42271625E+003 -2.01133669E+000   1.13523819E+000      31.45  <-- SCF
      2  -3.42504191E+003 -1.67531286E+000   1.29203675E-001      32.19  <-- SCF
      3  -3.42503706E+003 -1.66836185E+000  -2.69518639E-004      32.97  <-- SCF
      4  -3.42507113E+003 -1.65327816E+000   1.89269926E-003      33.42  <-- SCF
      5  -3.42507112E+003 -1.66140761E+000  -6.64091734E-007      34.23  <-- SCF
      6  -3.42507172E+003 -1.66250913E+000   3.32788790E-005      34.95  <-- SCF
      7  -3.42507194E+003 -1.66395102E+000   1.22738361E-005      35.41  <-- SCF
      8  -3.42507252E+003 -1.66571630E+000   3.21541781E-005      36.39  <-- SCF
      9  -3.42507278E+003 -1.66772498E+000   1.48998585E-005      37.02  <-- SCF
     10  -3.42507305E+003 -1.66958954E+000   1.46409229E-005      37.77  <-- SCF
     11  -3.42507327E+003 -1.67118358E+000   1.21358216E-005      38.53  <-- SCF
     12  -3.42507372E+003 -1.67374173E+000   2.51042689E-005      39.67  <-- SCF
     13  -3.42507389E+003 -1.67538005E+000   9.74437122E-006      40.58  <-- SCF
     14  -3.42507394E+003 -1.67698266E+000   2.47313353E-006      40.94  <-- SCF
     15  -3.42507394E+003 -1.67752444E+000   3.46061863E-007      41.28  <-- SCF
     16  -3.42507395E+003 -1.67770130E+000   1.67944372E-007      41.61  <-- SCF
------------------------------------------------------------------------ <-- SCF
 
Final energy, E             =  -3425.010286754     eV
Final free energy (E-TS)    =  -3425.073947827     eV
(energies not corrected for finite basis set)
 
NB est. 0K energy (E-0.5TS)      =  -3425.042117290     eV
 
 
 *********************************** Forces ***********************************
 *                                                                            *
 *                        Cartesian components (eV/A)                         *
 * -------------------------------------------------------------------------- *
 *                   x                    y                    z              *
 *                                                                            *
 * H         1      0.12500             -0.08833             -1.39005         *
 * H         2      0.04252              0.15284             -1.63652         *
 * H         3     -0.30439             -0.19312             -1.31354         *
 * H         4      0.15176             -0.23573             -1.59431         *
 * O         1     -0.31400              0.13651              0.55780         *
 * O         2      0.29651              0.04667             -0.25833         *
 * O         3     -0.50506              0.47246              0.82258         *
 * O         4     -0.76471              0.43808             -0.05312         *
 * Si        1      0.00614             -0.01845             -0.30205         *
 * Si        2      0.71234             -0.32697              3.33042         *
 * Sc        1      0.04375              0.21093             -0.01414         *
 * Sc        2     -0.23648             -0.09175              0.06960         *
 * Te        1      0.23712             -0.44794              0.37212         *
 * Te        2      0.32300             -0.22692              0.42570         *
 * Te        3      0.19270              0.14214              1.25235         *
 * Te        4      0.23071              0.11873             -0.04166         *
 * Te        5     -0.04068             -0.21934             -0.08267         *
 * Te        6     -0.19624              0.13020             -0.14419         *
 *                                                                            *
 ******************************************************************************
 DI: finished iteration   3  with energy= -3.42507395E+003 eV
  
 +-----------+-----------------+-----------------+------------+-----+ <-- DI
 | Parameter |      value      |    tolerance    |    units   | OK? | <-- DI
 +-----------+-----------------+-----------------+------------+-----+ <-- DI
 |  dE/ion   |   3.803789E-002 |   2.000000E-005 |         eV | No  | <-- DI
 |  |F|max   |   3.421408E+000 |   5.000000E-002 |       eV/A | No  | <-- DI
 |  |dR|max  |   1.732078E-001 |   2.000000E-003 |          A | No  | <-- DI
 +-----------+-----------------+-----------------+------------+-----+ <-- DI
  

================================================================================
 Starting DI iteration    4 ...
================================================================================

   Warning: Exceeded allowed number of iterative cycles in GetCART
   an internal coordinate may have approached 180 degrees,
   new set of delocalized internals will be generated
 status:           10
  Warning: problem with di_algor_back_trans 
  Warning: Backtransformation failed
  Message: New Coordinates will be constructed
Message: Generating delocalized internals

Total number of primitive bonds:             27
Total number of primitive angles:            76
Total number of primitive dihedrals:        225

Total number of primitive internals:        328

Message: Generation of delocalized internals is successful
 

 Startup Hessian in Internal Coordinates

 The size of active space is :    51
 There are :     51  degrees of freedom
 There are :    115  primitive internals


--------------------------------------------------------------------------------
 DI: structure has been updated on iteration   4
--------------------------------------------------------------------------------
 
                           -------------------------------
                                     Cell Contents
                           -------------------------------
 
            xxxxxxxxxxxxxxxxxxxxxxxxxxxxxxxxxxxxxxxxxxxxxxxxxxxxxxxxxxxx
            x  Element    Atom        Fractional coordinates of atoms  x
            x            Number           u          v          w      x
            x----------------------------------------------------------x
            x  H            1         0.027098   0.979734   0.441100   x
            x  H            2         0.104720   0.556890   0.459967   x
            x  H            3         0.680134   1.095145   0.450892   x
            x  H            4         0.491358   0.452025   0.471923   x
            x  O            1         0.020094   0.617107   0.426110   x
            x  O            2         0.549518   0.009018   0.408184   x
            x  O            3         0.383779   0.424358   0.418952   x
            x  O            4        -0.023686  -0.008490   0.375495   x
            x  Si           1        -0.008476   0.001051   0.068416   x
            x  Si           2        -0.007629  -0.001985   0.240976   x
            x  Sc           1         0.654345   0.333017   0.132076   x
            x  Sc           2         0.321088   0.663938   0.133271   x
            x  Te           1        -0.004349   0.633886   0.275580   x
            x  Te           2         0.357125   0.365919   0.268543   x
            x  Te           3         0.628540   0.000801   0.265365   x
            x  Te           4         0.646481   0.658600   0.005040   x
            x  Te           5        -0.011911   0.342551   0.004683   x
            x  Te           6         0.332483  -0.002505   0.004393   x
            xxxxxxxxxxxxxxxxxxxxxxxxxxxxxxxxxxxxxxxxxxxxxxxxxxxxxxxxxxxx
 
 
------------------------------------------------------------------------ <-- SCF
SCF loop      Energy           Fermi           Energy gain       Timer   <-- SCF
                               energy          per atom          (sec)   <-- SCF
------------------------------------------------------------------------ <-- SCF
Initial  -3.35800941E+003  0.00000000E+000                        41.91  <-- SCF
      1  -3.41846491E+003 -2.05185913E+000   3.35863898E+000      42.64  <-- SCF
      2  -3.42572818E+003 -1.61888391E+000   4.03514889E-001      43.38  <-- SCF
      3  -3.42578277E+003 -1.62740753E+000   3.03318707E-003      44.44  <-- SCF
      4  -3.42584295E+003 -1.59514614E+000   3.34296136E-003      44.92  <-- SCF
      5  -3.42584880E+003 -1.60727059E+000   3.25064796E-004      45.53  <-- SCF
      6  -3.42585097E+003 -1.61103888E+000   1.20839493E-004      46.53  <-- SCF
      7  -3.42585203E+003 -1.61354879E+000   5.89660981E-005      47.23  <-- SCF
      8  -3.42585266E+003 -1.61557832E+000   3.46881854E-005      47.92  <-- SCF
      9  -3.42585346E+003 -1.61850559E+000   4.42467518E-005      48.83  <-- SCF
     10  -3.42585394E+003 -1.62199628E+000   2.67701741E-005      49.55  <-- SCF
     11  -3.42585440E+003 -1.62660996E+000   2.57946362E-005      50.00  <-- SCF
     12  -3.42585502E+003 -1.63225951E+000   3.46167501E-005      50.80  <-- SCF
     13  -3.42585548E+003 -1.63586339E+000   2.54903433E-005      51.17  <-- SCF
     14  -3.42585561E+003 -1.63776772E+000   7.30710442E-006      51.52  <-- SCF
     15  -3.42585565E+003 -1.63809168E+000   2.21330019E-006      51.81  <-- SCF
     16  -3.42585566E+003 -1.63832383E+000   5.15902984E-007      52.09  <-- SCF
     17  -3.42585567E+003 -1.63838483E+000   2.14791107E-007      52.41  <-- SCF
------------------------------------------------------------------------ <-- SCF
 
Final energy, E             =  -3425.791610902     eV
Final free energy (E-TS)    =  -3425.855667699     eV
(energies not corrected for finite basis set)
 
NB est. 0K energy (E-0.5TS)      =  -3425.823639301     eV
 
 
 *********************************** Forces ***********************************
 *                                                                            *
 *                        Cartesian components (eV/A)                         *
 * -------------------------------------------------------------------------- *
 *                   x                    y                    z              *
 *                                                                            *
 * H         1      0.42913             -0.28088             -0.73282         *
 * H         2      0.28289             -0.03741             -1.02101         *
 * H         3      0.02409             -0.11885             -0.68717         *
 * H         4      0.28842             -0.31896             -0.98208         *
 * O         1     -0.52699              0.31271              0.08156         *
 * O         2      0.03659             -0.05843             -0.68716         *
 * O         3     -0.73060              0.56293              0.42655         *
 * O         4     -0.81744              0.64657             -0.71168         *
 * Si        1      0.07997             -0.04278             -0.33584         *
 * Si        2      0.63062             -0.30986              3.31475         *
 * Sc        1      0.02551              0.24599             -0.06554         *
 * Sc        2     -0.26979             -0.17127              0.03865         *
 * Te        1      0.26218             -0.38268              0.21211         *
 * Te        2      0.25108             -0.30057              0.22529         *
 * Te        3      0.07776              0.17784              1.07245         *
 * Te        4      0.17021              0.10861              0.01436         *
 * Te        5     -0.04083             -0.14807             -0.06285         *
 * Te        6     -0.17281              0.11510             -0.09955         *
 *                                                                            *
 ******************************************************************************
 DI: finished iteration   4  with energy= -3.42585567E+003 eV
  
 +-----------+-----------------+-----------------+------------+-----+ <-- DI
 | Parameter |      value      |    tolerance    |    units   | OK? | <-- DI
 +-----------+-----------------+-----------------+------------+-----+ <-- DI
 |  dE/ion   |   4.342888E-002 |   2.000000E-005 |         eV | No  | <-- DI
 |  |F|max   |   3.388397E+000 |   5.000000E-002 |       eV/A | No  | <-- DI
 |  |dR|max  |   2.807205E-001 |   2.000000E-003 |          A | No  | <-- DI
 +-----------+-----------------+-----------------+------------+-----+ <-- DI
  

================================================================================
 Starting DI iteration    5 ...
================================================================================

Writing analysis data to ScSiTe3__0_0_1_.castep_bin

Writing model to ScSiTe3__0_0_1_.check

--------------------------------------------------------------------------------
 DI: structure has been updated on iteration   5
--------------------------------------------------------------------------------
 
                           -------------------------------
                                     Cell Contents
                           -------------------------------
 
            xxxxxxxxxxxxxxxxxxxxxxxxxxxxxxxxxxxxxxxxxxxxxxxxxxxxxxxxxxxx
            x  Element    Atom        Fractional coordinates of atoms  x
            x            Number           u          v          w      x
            x----------------------------------------------------------x
            x  H            1         0.027453   0.980863   0.444404   x
            x  H            2         0.120055   0.541535   0.445316   x
            x  H            3         0.675705   1.098971   0.444530   x
            x  H            4         0.509346   0.469158   0.464061   x
            x  O            1         0.027345   0.604189   0.424122   x
            x  O            2         0.540668   0.010771   0.405620   x
            x  O            3         0.388594   0.438419   0.418532   x
            x  O            4        -0.031858  -0.007075   0.381681   x
            x  Si           1        -0.010221   0.000432   0.075646   x
            x  Si           2        -0.009290  -0.002867   0.249432   x
            x  Sc           1         0.651166   0.332325   0.132658   x
            x  Sc           2         0.318131   0.661949   0.133356   x
            x  Te           1        -0.006132   0.630005   0.276193   x
            x  Te           2         0.356381   0.367472   0.269975   x
            x  Te           3         0.624455  -0.000518   0.265885   x
            x  Te           4         0.648883   0.662468   0.006931   x
            x  Te           5        -0.015890   0.336499   0.006488   x
            x  Te           6         0.325922  -0.003536   0.006135   x
            xxxxxxxxxxxxxxxxxxxxxxxxxxxxxxxxxxxxxxxxxxxxxxxxxxxxxxxxxxxx
 
 
------------------------------------------------------------------------ <-- SCF
SCF loop      Energy           Fermi           Energy gain       Timer   <-- SCF
                               energy          per atom          (sec)   <-- SCF
------------------------------------------------------------------------ <-- SCF
Initial  -3.37476824E+003  0.00000000E+000                        52.80  <-- SCF
      1  -3.41915615E+003 -2.07167203E+000   2.46599526E+000      53.11  <-- SCF
      2  -3.42638287E+003 -1.57030652E+000   4.01484566E-001      53.52  <-- SCF
      3  -3.42645558E+003 -1.58699047E+000   4.03917112E-003      54.00  <-- SCF
      4  -3.42648636E+003 -1.55538667E+000   1.71019928E-003      54.38  <-- SCF
      5  -3.42649739E+003 -1.56535496E+000   6.12502502E-004      54.80  <-- SCF
      6  -3.42649874E+003 -1.56911007E+000   7.54915154E-005      55.25  <-- SCF
      7  -3.42649955E+003 -1.57265773E+000   4.45614714E-005      55.66  <-- SCF
      8  -3.42650027E+003 -1.57525021E+000   4.02956420E-005      56.00  <-- SCF
      9  -3.42650066E+003 -1.57789049E+000   2.16904646E-005      56.44  <-- SCF
     10  -3.42650103E+003 -1.58099780E+000   2.05619879E-005      56.78  <-- SCF
     11  -3.42650149E+003 -1.58593974E+000   2.53744565E-005      57.12  <-- SCF
     12  -3.42650199E+003 -1.59040074E+000   2.78738727E-005      57.39  <-- SCF
     13  -3.42650235E+003 -1.59376307E+000   2.01000264E-005      57.72  <-- SCF
     14  -3.42650255E+003 -1.59585646E+000   1.06926099E-005      58.06  <-- SCF
     15  -3.42650260E+003 -1.59669772E+000   3.30288477E-006      58.34  <-- SCF
     16  -3.42650262E+003 -1.59669026E+000   5.63484465E-007      58.61  <-- SCF
     17  -3.42650262E+003 -1.59668517E+000   3.08168238E-007      58.97  <-- SCF
------------------------------------------------------------------------ <-- SCF
 
Final energy, E             =  -3426.442868194     eV
Final free energy (E-TS)    =  -3426.502620556     eV
(energies not corrected for finite basis set)
 
NB est. 0K energy (E-0.5TS)      =  -3426.472744375     eV
 
 
 *********************************** Forces ***********************************
 *                                                                            *
 *                        Cartesian components (eV/A)                         *
 * -------------------------------------------------------------------------- *
 *                   x                    y                    z              *
 *                                                                            *
 * H         1      0.57244             -0.38985             -0.40032         *
 * H         2      0.42416             -0.14339             -0.56994         *
 * H         3      0.19428             -0.07280             -0.25520         *
 * H         4      0.36645             -0.31998             -0.58853         *
 * O         1     -0.56505              0.36378             -0.13956         *
 * O         2     -0.05348             -0.06732             -0.72590         *
 * O         3     -0.86067              0.57630              0.29478         *
 * O         4     -0.91452              0.71942             -0.92748         *
 * Si        1      0.14387             -0.07053             -0.36179         *
 * Si        2      0.60336             -0.28489              3.09219         *
 * Sc        1      0.00747              0.25449             -0.10549         *
 * Sc        2     -0.26873             -0.25560              0.03419         *
 * Te        1      0.24069             -0.22613              0.05028         *
 * Te        2      0.17126             -0.34422             -0.04443         *
 * Te        3      0.00953              0.16130              0.73402         *
 * Te        4      0.10234              0.07988              0.04474         *
 * Te        5     -0.02526             -0.07768             -0.06218         *
 * Te        6     -0.14813              0.09723             -0.06938         *
 *                                                                            *
 ******************************************************************************
 DI: finished iteration   5  with energy= -3.42650262E+003 eV
  
 +-----------+-----------------+-----------------+------------+-----+ <-- DI
 | Parameter |      value      |    tolerance    |    units   | OK? | <-- DI
 +-----------+-----------------+-----------------+------------+-----+ <-- DI
 |  dE/ion   |   3.594183E-002 |   2.000000E-005 |         eV | No  | <-- DI
 |  |F|max   |   3.163362E+000 |   5.000000E-002 |       eV/A | No  | <-- DI
 |  |dR|max  |   2.706844E-001 |   2.000000E-003 |          A | No  | <-- DI
 +-----------+-----------------+-----------------+------------+-----+ <-- DI
  

================================================================================
 Starting DI iteration    6 ...
================================================================================

--------------------------------------------------------------------------------
 DI: structure has been updated on iteration   6
--------------------------------------------------------------------------------
 
                           -------------------------------
                                     Cell Contents
                           -------------------------------
 
            xxxxxxxxxxxxxxxxxxxxxxxxxxxxxxxxxxxxxxxxxxxxxxxxxxxxxxxxxxxx
            x  Element    Atom        Fractional coordinates of atoms  x
            x            Number           u          v          w      x
            x----------------------------------------------------------x
            x  H            1         0.029310   0.980185   0.446540   x
            x  H            2         0.140127   0.535621   0.431153   x
            x  H            3         0.673989   1.102052   0.439218   x
            x  H            4         0.511768   0.482827   0.457652   x
            x  O            1         0.040316   0.596404   0.421437   x
            x  O            2         0.535382   0.012785   0.403174   x
            x  O            3         0.382361   0.449323   0.417887   x
            x  O            4        -0.040467  -0.007138   0.387451   x
            x  Si           1        -0.010611  -0.000437   0.082689   x
            x  Si           2        -0.010634  -0.004589   0.257963   x
            x  Sc           1         0.648952   0.331513   0.133474   x
            x  Sc           2         0.316117   0.659324   0.133156   x
            x  Te           1        -0.005995   0.626800   0.276577   x
            x  Te           2         0.354839   0.367732   0.271177   x
            x  Te           3         0.621372  -0.002548   0.266256   x
            x  Te           4         0.652681   0.666065   0.008893   x
            x  Te           5        -0.019454   0.329721   0.008333   x
            x  Te           6         0.320662  -0.004578   0.007938   x
            xxxxxxxxxxxxxxxxxxxxxxxxxxxxxxxxxxxxxxxxxxxxxxxxxxxxxxxxxxxx
 
 
------------------------------------------------------------------------ <-- SCF
SCF loop      Energy           Fermi           Energy gain       Timer   <-- SCF
                               energy          per atom          (sec)   <-- SCF
------------------------------------------------------------------------ <-- SCF
Initial  -3.37487649E+003  0.00000000E+000                        59.56  <-- SCF
      1  -3.42015347E+003 -2.30487711E+000   2.51538776E+000      60.45  <-- SCF
      2  -3.42690240E+003 -1.53484467E+000   3.74940596E-001      60.77  <-- SCF
      3  -3.42697812E+003 -1.55463927E+000   4.20617343E-003      61.31  <-- SCF
      4  -3.42698976E+003 -1.52483529E+000   6.47043926E-004      61.72  <-- SCF
      5  -3.42700416E+003 -1.52710365E+000   8.00161895E-004      62.22  <-- SCF
      6  -3.42700301E+003 -1.53142476E+000  -6.43267882E-005      62.62  <-- SCF
      7  -3.42700390E+003 -1.53411193E+000   4.93845407E-005      63.14  <-- SCF
      8  -3.42700437E+003 -1.53632959E+000   2.63126113E-005      63.48  <-- SCF
      9  -3.42700501E+003 -1.53958571E+000   3.55084297E-005      63.91  <-- SCF
     10  -3.42700530E+003 -1.54157642E+000   1.60302112E-005      64.27  <-- SCF
     11  -3.42700559E+003 -1.54459945E+000   1.65029367E-005      64.64  <-- SCF
     12  -3.42700584E+003 -1.54731667E+000   1.37742864E-005      65.00  <-- SCF
     13  -3.42700620E+003 -1.55075316E+000   1.99883337E-005      65.31  <-- SCF
     14  -3.42700637E+003 -1.55258680E+000   9.15358590E-006      65.64  <-- SCF
     15  -3.42700645E+003 -1.55348126E+000   4.36525583E-006      66.03  <-- SCF
     16  -3.42700647E+003 -1.55396537E+000   1.28046987E-006      66.36  <-- SCF
     17  -3.42700648E+003 -1.55409198E+000   4.28278573E-007      66.64  <-- SCF
------------------------------------------------------------------------ <-- SCF
 
Final energy, E             =  -3426.958363146     eV
Final free energy (E-TS)    =  -3427.006476205     eV
(energies not corrected for finite basis set)
 
NB est. 0K energy (E-0.5TS)      =  -3426.982419675     eV
 
 
 *********************************** Forces ***********************************
 *                                                                            *
 *                        Cartesian components (eV/A)                         *
 * -------------------------------------------------------------------------- *
 *                   x                    y                    z              *
 *                                                                            *
 * H         1      0.62224             -0.40869             -0.20737         *
 * H         2      0.51290             -0.19522             -0.15850         *
 * H         3      0.24503             -0.04129              0.03974         *
 * H         4      0.36157             -0.24006             -0.27349         *
 * O         1     -0.63386              0.28061             -0.29445         *
 * O         2     -0.06631             -0.05336             -0.56854         *
 * O         3     -0.75561              0.55426              0.30173         *
 * O         4     -0.85658              0.65012             -0.90952         *
 * Si        1      0.20222             -0.09381             -0.36552         *
 * Si        2      0.55946             -0.23833              2.60905         *
 * Sc        1     -0.04296              0.27016             -0.15274         *
 * Sc        2     -0.26173             -0.34104              0.03777         *
 * Te        1      0.20129             -0.02146             -0.04780         *
 * Te        2      0.05842             -0.40531             -0.36872         *
 * Te        3     -0.02802              0.14824              0.35962         *
 * Te        4      0.01820              0.05134              0.06855         *
 * Te        5     -0.01035             -0.00031             -0.04871         *
 * Te        6     -0.12592              0.08414             -0.02108         *
 *                                                                            *
 ******************************************************************************
 DI: finished iteration   6  with energy= -3.42700648E+003 eV
  
 +-----------+-----------------+-----------------+------------+-----+ <-- DI
 | Parameter |      value      |    tolerance    |    units   | OK? | <-- DI
 +-----------+-----------------+-----------------+------------+-----+ <-- DI
 |  dE/ion   |   2.799198E-002 |   2.000000E-005 |         eV | No  | <-- DI
 |  |F|max   |   2.678977E+000 |   5.000000E-002 |       eV/A | No  | <-- DI
 |  |dR|max  |   2.520434E-001 |   2.000000E-003 |          A | No  | <-- DI
 +-----------+-----------------+-----------------+------------+-----+ <-- DI
  

================================================================================
 Starting DI iteration    7 ...
================================================================================

--------------------------------------------------------------------------------
 DI: structure has been updated on iteration   7
--------------------------------------------------------------------------------
 
                           -------------------------------
                                     Cell Contents
                           -------------------------------
 
            xxxxxxxxxxxxxxxxxxxxxxxxxxxxxxxxxxxxxxxxxxxxxxxxxxxxxxxxxxxx
            x  Element    Atom        Fractional coordinates of atoms  x
            x            Number           u          v          w      x
            x----------------------------------------------------------x
            x  H            1         0.036992   0.978859   0.447002   x
            x  H            2         0.151305   0.528062   0.420546   x
            x  H            3         0.677095   1.105860   0.434643   x
            x  H            4         0.507033   0.501173   0.451801   x
            x  O            1         0.046539   0.585432   0.418592   x
            x  O            2         0.535484   0.016363   0.400863   x
            x  O            3         0.371407   0.462637   0.416172   x
            x  O            4        -0.045701  -0.007755   0.393082   x
            x  Si           1        -0.009766  -0.001449   0.089590   x
            x  Si           2        -0.010779  -0.006662   0.266612   x
            x  Sc           1         0.647419   0.330489   0.133799   x
            x  Sc           2         0.314585   0.656010   0.132952   x
            x  Te           1        -0.005804   0.623331   0.276660   x
            x  Te           2         0.353694   0.367069   0.271979   x
            x  Te           3         0.620237  -0.004335   0.266170   x
            x  Te           4         0.657224   0.669997   0.010859   x
            x  Te           5        -0.022072   0.322510   0.010021   x
            x  Te           6         0.315822  -0.006534   0.009625   x
            xxxxxxxxxxxxxxxxxxxxxxxxxxxxxxxxxxxxxxxxxxxxxxxxxxxxxxxxxxxx
 
 
------------------------------------------------------------------------ <-- SCF
SCF loop      Energy           Fermi           Energy gain       Timer   <-- SCF
                               energy          per atom          (sec)   <-- SCF
------------------------------------------------------------------------ <-- SCF
Initial  -3.37471872E+003  0.00000000E+000                        66.88  <-- SCF
      1  -3.42133308E+003 -1.86217648E+000   2.58968662E+000      67.17  <-- SCF
      2  -3.42728751E+003 -1.50868991E+000   3.30801569E-001      67.61  <-- SCF
      3  -3.42733700E+003 -1.52242378E+000   2.74936085E-003      68.14  <-- SCF
      4  -3.42733714E+003 -1.49761040E+000   8.19970177E-006      68.59  <-- SCF
      5  -3.42735226E+003 -1.49432619E+000   8.39994394E-004      69.05  <-- SCF
      6  -3.42735222E+003 -1.49935510E+000  -2.53807816E-006      69.58  <-- SCF
      7  -3.42735280E+003 -1.50196231E+000   3.21689031E-005      70.05  <-- SCF
      8  -3.42735318E+003 -1.50360435E+000   2.12427099E-005      70.41  <-- SCF
      9  -3.42735351E+003 -1.50537333E+000   1.84062730E-005      70.78  <-- SCF
     10  -3.42735377E+003 -1.50747098E+000   1.45528614E-005      71.19  <-- SCF
     11  -3.42735390E+003 -1.50889485E+000   7.16489418E-006      71.50  <-- SCF
     12  -3.42735405E+003 -1.51035012E+000   8.00045681E-006      71.86  <-- SCF
     13  -3.42735430E+003 -1.51284079E+000   1.41107470E-005      72.17  <-- SCF
     14  -3.42735443E+003 -1.51444714E+000   6.99496706E-006      72.52  <-- SCF
     15  -3.42735447E+003 -1.51521374E+000   2.13830687E-006      72.84  <-- SCF
     16  -3.42735448E+003 -1.51546311E+000   8.02896916E-007      73.14  <-- SCF
     17  -3.42735449E+003 -1.51560640E+000   4.30462960E-007      73.44  <-- SCF
------------------------------------------------------------------------ <-- SCF
 
Final energy, E             =  -3427.322562948     eV
Final free energy (E-TS)    =  -3427.354487299     eV
(energies not corrected for finite basis set)
 
NB est. 0K energy (E-0.5TS)      =  -3427.338525124     eV
 
 
 *********************************** Forces ***********************************
 *                                                                            *
 *                        Cartesian components (eV/A)                         *
 * -------------------------------------------------------------------------- *
 *                   x                    y                    z              *
 *                                                                            *
 * H         1      0.55478             -0.35158             -0.07577         *
 * H         2      0.59286             -0.16043              0.19529         *
 * H         3      0.23037             -0.00665              0.23247         *
 * H         4      0.32813             -0.11304              0.00659         *
 * O         1     -0.68945              0.32335             -0.38868         *
 * O         2     -0.07104             -0.03258             -0.35023         *
 * O         3     -0.60984              0.34300              0.35985         *
 * O         4     -0.73545              0.46686             -0.56002         *
 * Si        1      0.26134             -0.10909             -0.36204         *
 * Si        2      0.50869             -0.16921              1.82183         *
 * Sc        1     -0.08808              0.30459             -0.20319         *
 * Sc        2     -0.24008             -0.40788              0.03276         *
 * Te        1      0.17451              0.16302             -0.07895         *
 * Te        2     -0.04029             -0.49064             -0.70573         *
 * Te        3     -0.02150              0.10684              0.00331         *
 * Te        4     -0.07583              0.00310              0.07297         *
 * Te        5      0.00440              0.06714             -0.02832         *
 * Te        6     -0.08351              0.06320              0.02785         *
 *                                                                            *
 ******************************************************************************
 DI: finished iteration   7  with energy= -3.42735449E+003 eV
  
 +-----------+-----------------+-----------------+------------+-----+ <-- DI
 | Parameter |      value      |    tolerance    |    units   | OK? | <-- DI
 +-----------+-----------------+-----------------+------------+-----+ <-- DI
 |  dE/ion   |   1.933395E-002 |   2.000000E-005 |         eV | No  | <-- DI
 |  |F|max   |   1.899066E+000 |   5.000000E-002 |       eV/A | No  | <-- DI
 |  |dR|max  |   1.828888E-001 |   2.000000E-003 |          A | No  | <-- DI
 +-----------+-----------------+-----------------+------------+-----+ <-- DI
  

================================================================================
 Starting DI iteration    8 ...
================================================================================

--------------------------------------------------------------------------------
 DI: structure has been updated on iteration   8
--------------------------------------------------------------------------------
 
                           -------------------------------
                                     Cell Contents
                           -------------------------------
 
            xxxxxxxxxxxxxxxxxxxxxxxxxxxxxxxxxxxxxxxxxxxxxxxxxxxxxxxxxxxx
            x  Element    Atom        Fractional coordinates of atoms  x
            x            Number           u          v          w      x
            x----------------------------------------------------------x
            x  H            1         0.043693   0.972819   0.445165   x
            x  H            2         0.156095   0.536498   0.419159   x
            x  H            3         0.684300   1.111659   0.430079   x
            x  H            4         0.495966   0.507314   0.447457   x
            x  O            1         0.045286   0.587730   0.417355   x
            x  O            2         0.540373   0.022394   0.397919   x
            x  O            3         0.356529   0.464790   0.414391   x
            x  O            4        -0.051214  -0.011720   0.397723   x
            x  Si           1        -0.006458  -0.002540   0.095210   x
            x  Si           2        -0.009817  -0.008540   0.274154   x
            x  Sc           1         0.648220   0.329994   0.132737   x
            x  Sc           2         0.313972   0.651154   0.132883   x
            x  Te           1        -0.005372   0.621239   0.276056   x
            x  Te           2         0.354205   0.363601   0.271872   x
            x  Te           3         0.621528  -0.005057   0.264963   x
            x  Te           4         0.662490   0.674441   0.012216   x
            x  Te           5        -0.022130   0.315439   0.010772   x
            x  Te           6         0.313047  -0.010153   0.010856   x
            xxxxxxxxxxxxxxxxxxxxxxxxxxxxxxxxxxxxxxxxxxxxxxxxxxxxxxxxxxxx
 
 
------------------------------------------------------------------------ <-- SCF
SCF loop      Energy           Fermi           Energy gain       Timer   <-- SCF
                               energy          per atom          (sec)   <-- SCF
------------------------------------------------------------------------ <-- SCF
Initial  -3.39843995E+003  0.00000000E+000                        73.67  <-- SCF
      1  -3.42491140E+003 -2.05022261E+000   1.47063628E+000      73.98  <-- SCF
      2  -3.42754567E+003 -1.48472758E+000   1.46348224E-001      74.44  <-- SCF
      3  -3.42755894E+003 -1.48651710E+000   7.37211462E-004      74.94  <-- SCF
      4  -3.42756863E+003 -1.47638491E+000   5.38316986E-004      75.36  <-- SCF
      5  -3.42757052E+003 -1.47759894E+000   1.05406135E-004      75.78  <-- SCF
      6  -3.42757170E+003 -1.48021202E+000   6.50782680E-005      76.30  <-- SCF
      7  -3.42757216E+003 -1.48155621E+000   2.59916434E-005      76.69  <-- SCF
      8  -3.42757252E+003 -1.48304579E+000   1.95899646E-005      77.09  <-- SCF
      9  -3.42757273E+003 -1.48407050E+000   1.17905162E-005      77.50  <-- SCF
     10  -3.42757285E+003 -1.48521038E+000   6.68106816E-006      77.81  <-- SCF
     11  -3.42757291E+003 -1.48588020E+000   3.45370899E-006      78.12  <-- SCF
     12  -3.42757306E+003 -1.48755560E+000   8.04499548E-006      78.42  <-- SCF
     13  -3.42757316E+003 -1.48863237E+000   6.04954059E-006      78.72  <-- SCF
     14  -3.42757321E+003 -1.48983502E+000   2.45303992E-006      79.05  <-- SCF
     15  -3.42757322E+003 -1.49024498E+000   8.90313821E-007      79.34  <-- SCF
     16  -3.42757323E+003 -1.49041048E+000   4.16333201E-007      79.66  <-- SCF
------------------------------------------------------------------------ <-- SCF
 
Final energy, E             =  -3427.556456367     eV
[...]
 * -------------------------------------------------------------------------- *
 *                   x                    y                    z              *
 *                                                                            *
 * H         1      0.00320             -0.00313             -0.00240         *
 * H         2     -0.00334             -0.00429              0.00029         *
 * H         3     -0.00017             -0.00240              0.00139         *
 * H         4      0.00177             -0.00163              0.00032         *
 * O         1      0.00055              0.00032             -0.00163         *
 * O         2      0.00475              0.00271             -0.00204         *
 * O         3     -0.00678              0.00020             -0.00471         *
 * O         4     -0.00062              0.00420              0.00768         *
 * Si        1      0.00124             -0.00597              0.00514         *
 * Si        2     -0.00364              0.00654             -0.00100         *
 * Sc        1     -0.00427              0.00270              0.01033         *
 * Sc        2      0.00219              0.00383             -0.00228         *
 * Te        1      0.00052             -0.00168              0.00183         *
 * Te        2      0.00867              0.00101             -0.00043         *
 * Te        3     -0.00335             -0.00202             -0.00114         *
 * Te        4     -0.00193              0.00216             -0.00464         *
 * Te        5     -0.00093              0.00061             -0.00527         *
 * Te        6      0.00212             -0.00318             -0.00144         *
 *                                                                            *
 ******************************************************************************
 DI: finished iteration  89  with energy= -3.42964315E+003 eV
  
 +-----------+-----------------+-----------------+------------+-----+ <-- DI
 | Parameter |      value      |    tolerance    |    units   | OK? | <-- DI
 +-----------+-----------------+-----------------+------------+-----+ <-- DI
 |  dE/ion   |   5.685206E-007 |   2.000000E-005 |         eV | Yes | <-- DI
 |  |F|max   |   1.149546E-002 |   5.000000E-002 |       eV/A | Yes | <-- DI
 |  |dR|max  |   2.893594E-003 |   2.000000E-003 |          A | No  | <-- DI
 +-----------+-----------------+-----------------+------------+-----+ <-- DI
  

================================================================================
 Starting DI iteration   90 ...
================================================================================

Writing analysis data to ScSiTe3__0_0_1_.castep_bin

Writing model to ScSiTe3__0_0_1_.check
**WARNING** Magnitude of eigenvalue  51 too large. Replaced by    25.000000

--------------------------------------------------------------------------------
 DI: structure has been updated on iteration  90
--------------------------------------------------------------------------------
 
                           -------------------------------
                                     Cell Contents
                           -------------------------------
 
            xxxxxxxxxxxxxxxxxxxxxxxxxxxxxxxxxxxxxxxxxxxxxxxxxxxxxxxxxxxx
            x  Element    Atom        Fractional coordinates of atoms  x
            x            Number           u          v          w      x
            x----------------------------------------------------------x
            x  H            1         0.078438   1.130119   0.448663   x
            x  H            2         0.094032   0.429435   0.461740   x
            x  H            3         0.695612   1.213306   0.391172   x
            x  H            4         0.301026   0.448868   0.519137   x
            x  O            1        -0.050366   0.470760   0.375009   x
            x  O            2         0.582641   0.054122   0.374850   x
            x  O            3         0.143232   0.349215   0.507966   x
            x  O            4         0.026989  -0.008168   0.405042   x
            x  Si           1         0.016689  -0.009409   0.086698   x
            x  Si           2         0.047318   0.014795   0.285177   x
            x  Sc           1         0.681177   0.345311   0.112995   x
            x  Sc           2         0.355279   0.655366   0.121407   x
            x  Te           1         0.020289   0.635420   0.260301   x
            x  Te           2         0.408226   0.380896   0.264246   x
            x  Te           3         0.687685   0.021765   0.248508   x
            x  Te           4         0.691169   0.679902  -0.010729   x
            x  Te           5         0.020223   0.320533  -0.000344   x
            x  Te           6         0.341055  -0.011173  -0.000869   x
            xxxxxxxxxxxxxxxxxxxxxxxxxxxxxxxxxxxxxxxxxxxxxxxxxxxxxxxxxxxx
 
 
------------------------------------------------------------------------ <-- SCF
SCF loop      Energy           Fermi           Energy gain       Timer   <-- SCF
                               energy          per atom          (sec)   <-- SCF
------------------------------------------------------------------------ <-- SCF
Initial  -3.42963415E+003  0.00000000E+000                       391.67  <-- SCF
      1  -3.42964316E+003 -2.12888995E+000   5.00313206E-004     391.98  <-- SCF
      2  -3.42964318E+003 -2.12889028E+000   1.19842625E-006     392.27  <-- SCF
      3  -3.42964317E+003 -2.12888277E+000  -3.52144629E-007     392.50  <-- SCF
      4  -3.42964318E+003 -2.12899861E+000   3.64412119E-007     392.77  <-- SCF
------------------------------------------------------------------------ <-- SCF
 
Final energy, E             =  -3429.643179231     eV
Final free energy (E-TS)    =  -3429.643179231     eV
(energies not corrected for finite basis set)
 
NB est. 0K energy (E-0.5TS)      =  -3429.643179231     eV
 
 
 *********************************** Forces ***********************************
 *                                                                            *
 *                        Cartesian components (eV/A)                         *
 * -------------------------------------------------------------------------- *
 *                   x                    y                    z              *
 *                                                                            *
 * H         1      0.00247              0.00032             -0.00053         *
 * H         2     -0.00179             -0.00213             -0.00059         *
 * H         3      0.00190              0.00092              0.00094         *
 * H         4      0.00260              0.00035              0.00116         *
 * O         1     -0.00331              0.00047             -0.00062         *
 * O         2      0.00582              0.00202             -0.00003         *
 * O         3     -0.01611             -0.00494             -0.00346         *
 * O         4     -0.00130              0.00198              0.00317         *
 * Si        1      0.00101             -0.00488              0.00373         *
 * Si        2     -0.00118              0.00502             -0.00019         *
 * Sc        1     -0.00319              0.00133              0.01176         *
 * Sc        2      0.00310              0.00477             -0.00372         *
 * Te        1     -0.00097             -0.00143             -0.00100         *
 * Te        2      0.01043             -0.00214             -0.00095         *
 * Te        3     -0.00203             -0.00027             -0.00050         *
 * Te        4     -0.00034              0.00074             -0.00265         *
 * Te        5      0.00146              0.00011             -0.00441         *
 * Te        6      0.00143             -0.00225             -0.00213         *
 *                                                                            *
 ******************************************************************************
 DI: finished iteration  90  with energy= -3.42964318E+003 eV
  
 +-----------+-----------------+-----------------+------------+-----+ <-- DI
 | Parameter |      value      |    tolerance    |    units   | OK? | <-- DI
 +-----------+-----------------+-----------------+------------+-----+ <-- DI
 |  dE/ion   |   1.412834E-006 |   2.000000E-005 |         eV | Yes | <-- DI
 |  |F|max   |   1.720071E-002 |   5.000000E-002 |       eV/A | Yes | <-- DI
 |  |dR|max  |   1.784943E-003 |   2.000000E-003 |          A | Yes | <-- DI
 +-----------+-----------------+-----------------+------------+-----+ <-- DI
  
 DI: Geometry optimization completed successfully.

================================================================================
 DI: Final Configuration:
================================================================================
 
                           -------------------------------
                                     Cell Contents
                           -------------------------------
 
            xxxxxxxxxxxxxxxxxxxxxxxxxxxxxxxxxxxxxxxxxxxxxxxxxxxxxxxxxxxx
            x  Element    Atom        Fractional coordinates of atoms  x
            x            Number           u          v          w      x
            x----------------------------------------------------------x
            x  H            1         0.078438   1.130119   0.448663   x
            x  H            2         0.094032   0.429435   0.461740   x
            x  H            3         0.695612   1.213306   0.391172   x
            x  H            4         0.301026   0.448868   0.519137   x
            x  O            1        -0.050366   0.470760   0.375009   x
            x  O            2         0.582641   0.054122   0.374850   x
            x  O            3         0.143232   0.349215   0.507966   x
            x  O            4         0.026989  -0.008168   0.405042   x
            x  Si           1         0.016689  -0.009409   0.086698   x
            x  Si           2         0.047318   0.014795   0.285177   x
            x  Sc           1         0.681177   0.345311   0.112995   x
            x  Sc           2         0.355279   0.655366   0.121407   x
            x  Te           1         0.020289   0.635420   0.260301   x
            x  Te           2         0.408226   0.380896   0.264246   x
            x  Te           3         0.687685   0.021765   0.248508   x
            x  Te           4         0.691169   0.679902  -0.010729   x
            x  Te           5         0.020223   0.320533  -0.000344   x
            x  Te           6         0.341055  -0.011173  -0.000869   x
            xxxxxxxxxxxxxxxxxxxxxxxxxxxxxxxxxxxxxxxxxxxxxxxxxxxxxxxxxxxx
 
 
 DI: Final Energy     = -3.42964318E+003 eV
 
 *********************************** Forces ***********************************
 *                                                                            *
 *                        Cartesian components (eV/A)                         *
 * -------------------------------------------------------------------------- *
 *                   x                    y                    z              *
 *                                                                            *
 * H         1      0.00247              0.00032             -0.00053         *
 * H         2     -0.00179             -0.00213             -0.00059         *
 * H         3      0.00190              0.00092              0.00094         *
 * H         4      0.00260              0.00035              0.00116         *
 * O         1     -0.00331              0.00047             -0.00062         *
 * O         2      0.00582              0.00202             -0.00003         *
 * O         3     -0.01611             -0.00494             -0.00346         *
 * O         4     -0.00130              0.00198              0.00317         *
 * Si        1      0.00101             -0.00488              0.00373         *
 * Si        2     -0.00118              0.00502             -0.00019         *
 * Sc        1     -0.00319              0.00133              0.01176         *
 * Sc        2      0.00310              0.00477             -0.00372         *
 * Te        1     -0.00097             -0.00143             -0.00100         *
 * Te        2      0.01043             -0.00214             -0.00095         *
 * Te        3     -0.00203             -0.00027             -0.00050         *
 * Te        4     -0.00034              0.00074             -0.00265         *
 * Te        5      0.00146              0.00011             -0.00441         *
 * Te        6      0.00143             -0.00225             -0.00213         *
 *                                                                            *
 ******************************************************************************
 
 ***************** Stress Tensor *****************
 *                                               *
 *          Cartesian components (GPa)           *
 * --------------------------------------------- *
 *             x             y             z     *
 *                                               *
 *  x     -1.627578      0.133683     -0.028534  *
 *  y      0.133683     -1.794332      0.009551  *
 *  z     -0.028534      0.009551     -0.117869  *
 *                                               *
 *  Pressure:    1.1799                          *
 *                                               *
 *************************************************
 
 Pseudo atomic calculation performed for H 1s1
 
 Converged in 13 iterations to a total energy of -12.4688 eV
 
 
 Pseudo atomic calculation performed for O 2s2 2p4
 
 Converged in 22 iterations to a total energy of -423.8174 eV
 
 
 Pseudo atomic calculation performed for Si 3s2 3p2
 
 Converged in 15 iterations to a total energy of -101.6421 eV
 
 
 Pseudo atomic calculation performed for Sc 3d1 4s2
 
 Converged in 18 iterations to a total energy of -43.5611 eV
 
 
 Pseudo atomic calculation performed for Te 5s2 5p4
 
 Converged in 16 iterations to a total energy of -217.5984 eV
 
Charge spilling parameter for spin component 1 = 0.93%
 
     Atomic Populations (Mulliken)
     -----------------------------
Species   Ion     s      p      d      f     Total  Charge (e)
==============================================================
  H        1     0.58   0.00   0.00   0.00   0.58     0.42
  H        2     0.57   0.00   0.00   0.00   0.57     0.43
  H        3     0.57   0.00   0.00   0.00   0.57     0.43
  H        4     0.52   0.00   0.00   0.00   0.52     0.48
  O        1     1.92   5.05   0.00   0.00   6.97    -0.97
  O        2     1.89   4.97   0.00   0.00   6.86    -0.86
  O        3     1.83   5.09   0.00   0.00   6.92    -0.92
  O        4     1.84   5.12   0.00   0.00   6.96    -0.96
  Si       1     1.59   2.49   0.00   0.00   4.09    -0.09
  Si       2     1.25   2.14   0.00   0.00   3.38     0.62
  Sc       1     0.41   0.68   1.69   0.00   2.77     0.23
  Sc       2     0.42   0.68   1.69   0.00   2.79     0.21
  Te       1     1.67   3.62   0.00   0.00   5.29     0.71
  Te       2     1.73   4.32   0.00   0.00   6.05    -0.05
  Te       3     1.65   3.71   0.00   0.00   5.36     0.64
  Te       4     1.84   4.28   0.00   0.00   6.12    -0.12
  Te       5     1.82   4.28   0.00   0.00   6.10    -0.10
  Te       6     1.82   4.29   0.00   0.00   6.11    -0.11
==============================================================
 
            Bond              Population      Length (A)
============================================================
          H 4 -- O 3               0.57        0.96744
          H 2 -- O 3               0.55        1.00257
          H 3 -- O 2               0.55        1.00521
          H 1 -- O 4               0.53        1.02499
          H 1 -- O 3               0.16        1.56957
          H 2 -- H 4              -0.11        1.57473
          O 4 -- Si 2              0.46        1.63323
          H 2 -- O 1               0.10        1.65767
          H 3 -- O 1               0.11        1.78154
          O 1 -- Te 1              0.41        1.84400
          O 2 -- Te 3              0.29        1.91784
          H 1 -- H 2              -0.03        2.02516
          H 1 -- H 4              -0.02        2.17868
          H 3 -- Te 3             -0.29        2.33029
          H 1 -- Si 2             -0.12        2.33031
         Si 2 -- Te 2              0.43        2.52902
         Si 1 -- Te 6              0.58        2.54300
         Si 2 -- Te 1              0.47        2.55667
         Si 1 -- Te 5              0.57        2.55768
         Si 2 -- Te 3              0.43        2.55933
         Si 1 -- Te 4              0.47        2.56725
          H 2 -- H 3              -0.01        2.57286
          O 3 -- O 4              -0.12        2.59113
          O 1 -- O 3              -0.10        2.62213
         Si 1 -- Si 2              0.27        2.69981
          O 1 -- O 2              -0.08        2.72480
         Sc 1 -- Te 4              0.50        2.83066
         Sc 2 -- Te 5              0.50        2.84426
         Sc 2 -- Te 2              0.49        2.86080
         Sc 1 -- Te 6              0.49        2.86242
         Sc 2 -- Te 4              0.54        2.87061
         Sc 1 -- Te 5              0.43        2.87900
         Sc 1 -- Te 2              0.41        2.88028
         Sc 2 -- Te 6              0.48        2.88137
         Sc 1 -- Te 3              0.36        2.91298
          H 2 -- O 4              -0.00        2.92499
         Sc 2 -- Te 1              0.35        2.93487
         Sc 1 -- Te 1              0.38        2.96822
         Sc 2 -- Te 3              0.03        2.97474
============================================================
 
All bands spilling parameter for spin component 1 = 1.77%
 
     Hirshfeld Analysis
     ------------------
Species   Ion     Hirshfeld Charge (e)  Spin (hbar/2)
===================================================
  H        1                 0.10        0.00
  H        2                 0.10        0.00
  H        3                 0.10        0.00
  H        4                 0.16        0.00
  O        1                -0.30        0.00
  O        2                -0.25        0.00
  O        3                -0.23        0.00
  O        4                -0.30        0.00
  Si       1                 0.03        0.00
  Si       2                 0.16        0.00
  Sc       1                 0.05        0.00
  Sc       2                 0.06        0.00
  Te       1                 0.23        0.00
  Te       2                -0.01        0.00
  Te       3                 0.23        0.00
  Te       4                -0.05        0.00
  Te       5                -0.04        0.00
  Te       6                -0.04        0.00
===================================================
 

Writing analysis data to ScSiTe3__0_0_1_.castep_bin

Writing model to ScSiTe3__0_0_1_.check
 
 A BibTeX formatted list of references used in this run has been written to 
 ScSiTe3__0_0_1_.bib
 
Initialisation time =      0.72 s
Calculation time    =    393.12 s
Finalisation time   =      0.25 s
Total time          =    394.09 s
  
Overall parallel efficiency rating: Satisfactory (64%)                          
  
Data was distributed by:-
G-vector (24-way); efficiency rating: Good (70%)                                
k-point (2-way); efficiency rating: Very good (89%)                             
  
Parallel notes:
1) Calculation only took 394.0 s, so efficiency estimates may be inaccurate.    
