 Job started on host DESKTOP-1C867QN
 at Mon Jun  2 19:13:12 2025

 +-------------------------------------------------+
 |                                                 |
 |      CCC   AA    SSS  TTTTT  EEEEE  PPPP        |
 |     C     A  A  S       T    E      P   P       |
 |     C     AAAA   SS     T    EEE    PPPP        |
 |     C     A  A     S    T    E      P           |
 |      CCC  A  A  SSS     T    EEEEE  P           |
 |                                                 |
 +-------------------------------------------------+
 |                                                 |
 | Materials Studio CASTEP version 2017            |
 | Ab Initio Total Energy Program                  |
 |                                                 |
 | Authors:                                        |
 | M. Segall, M. Probert, C. Pickard, P. Hasnip,   |
 | S. Clark, K. Refson, J. R. Yates, M. Payne      |
 |                                                 |
 | Contributors:                                   |
 | P. Lindan, P. Haynes, J. White, V. Milman,      |
 | N. Govind, M. Gibson, P. Tulip, V. Cocula,      |
 | B. Montanari, D. Quigley, M. Glover,            |
 | L. Bernasconi, A. Perlov, M. Plummer,           |
 | E. McNellis, J. Meyer, J. Gale, D. Jochym       |
 | J. Aarons, B. Walker, R. Gillen, D. Jones       |
 | T. Green, I. J. Bush, C. J. Armstrong,          |
 | E. J. Higgins, E. L. Brown, M. S. McFly         |
 |                                                 |
 | Copyright (c) 2000 - 2016                       |
 |                                                 |
 | Please cite                                     |
 |                                                 |
 |     "First principles methods using CASTEP"     |
 |                                                 |
 |         Zeitschrift fuer Kristallographie       |
 |           220(5-6) pp. 567-570 (2005)           |
 |                                                 |
 | S. J. Clark, M. D. Segall, C. J. Pickard,       |
 | P. J. Hasnip, M. J. Probert, K. Refson,         |
 | M. C. Payne                                     |
 |                                                 |
 |       in all publications arising from          |
 |              your use of CASTEP                 |
 |                                                 |
 +-------------------------------------------------+
 
 
 This version was compiled for x86_64-windows-msvc2008 on May 05 2016
 Intel(R) Math Kernel Library Version 11.1.2 
 Fundamental constants values: CODATA 2010
 
License checkout of MS_castep successful
 
Reading continuation data from model file ScSiTe3__0_0_1__BandStr.check
 
 Pseudo atomic calculation performed for H 1s1
 
 Converged in 13 iterations to a total energy of -12.4688 eV
 
 
 Pseudo atomic calculation performed for O 2s2 2p4
 
 Converged in 22 iterations to a total energy of -423.8174 eV
 
 
 Pseudo atomic calculation performed for Si 3s2 3p2
 
 Converged in 15 iterations to a total energy of -101.6421 eV
 
 
 Pseudo atomic calculation performed for Sc 3d1 4s2
 
 Converged in 18 iterations to a total energy of -43.5611 eV
 
 
 Pseudo atomic calculation performed for Te 5s2 5p4
 
 Converged in 16 iterations to a total energy of -217.5984 eV
 
Initialising basis set for model.
Reinitialising basis set for current geometry.
Continuing from previous run with ground state wavefunction.
Continuing from previous run with ground state density.
 Info: CALCULATE_STRESS modified from T to F
 Info: CALCULATE_HIRSHFELD modified from T to F
 Info: FINITE_BASIS_CORR modified from AUTOMATIC to NONE
 Info: POPN_CALCULATE modified from T to F
 Info: PDOS_CALCULATE_WEIGHTS modified from T to F
 Info: SPECTRAL_NBANDS modified from         82 to        140
 Info: SPECTRAL_EIGENVALUE_TOL modified from    0.1000000000000000E-05 eV to    0.1000000000000000E-04 eV
 Info: CELL_CONSTRAINTS modified on continuation 
 Calculation parallelised over 48 processes.
 Data is distributed by G-vector(24-way) and k-point(2-way)

 ************************************ Title ************************************
 CASTEP calculation from Materials Studio

 ***************************** General Parameters ******************************
  
 output verbosity                               : normal  (1)
 continuing from                                : ScSiTe3__0_0_1__BandStr.check
 write checkpoint data to                       : ScSiTe3__0_0_1__BandStr.check
 type of calculation                            : Electronic Spectroscopy
 stress calculation                             : off
 density difference calculation                 : off
 electron localisation func (ELF) calculation   : off
 Hirshfeld analysis                             : off
 unlimited duration calculation
 timing information                             : on
 memory usage estimate                          : on
 write final potential to formatted file        : off
 write final density to formatted file          : off
 write BibTeX reference list                    : on
 write OTFG pseudopotential files               : on
 checkpoint writing                             : both castep_bin and check files
  
 output         length unit                     : A
 output           mass unit                     : amu
 output           time unit                     : ps
 output         charge unit                     : e
 output           spin unit                     : hbar/2
 output         energy unit                     : eV
 output          force unit                     : eV/A
 output       velocity unit                     : A/ps
 output       pressure unit                     : GPa
 output     inv_length unit                     : 1/A
 output      frequency unit                     : cm-1
 output force constant unit                     : eV/A**2
 output         volume unit                     : A**3
 output   IR intensity unit                     : (D/A)**2/amu
 output         dipole unit                     : D
 output         efield unit                     : eV/A/e
 output        entropy unit                     : J/mol/K
  
 wavefunctions paging                           : none
 random number generator seed                   :  104913966
 data distribution                              : optimal for this architecture
 optimization strategy                          : maximize speed(+++)

 *********************** Exchange-Correlation Parameters ***********************
  
 using functional                               : Perdew Burke Ernzerhof
 relativistic treatment                         : Koelling-Harmon
 DFT+D: Semi-empirical dispersion correction    : off

 ************************* Pseudopotential Parameters **************************
  
 pseudopotential representation                 : reciprocal space
 <beta|phi> representation                      : reciprocal space
 spin-orbit coupling                            : off

 **************************** Basis Set Parameters *****************************
  
 plane wave basis set cut-off                   :   600.0000   eV
 size of standard grid                          :     1.5000
 size of   fine   gmax                          :    18.8237   1/A
 largest prime factor in FFT                    :          5
 finite basis set correction                    : none

 **************************** Electronic Parameters ****************************
  
 number of  electrons                           :  78.00    
 net charge of system                           :  0.000    
 treating system as non-spin-polarized
 number of bands                                :         47

 ********************* Electronic Minimization Parameters **********************
  
 Method: Treating system as metallic with density mixing treatment of electrons,
         and number of  SD  steps               :          1
         and number of  CG  steps               :          4
  
 total energy / atom convergence tol.           : 0.2000E-05   eV
 eigen-energy convergence tolerance             : 0.7660E-06   eV
 max force / atom convergence tol.              : ignored
 convergence tolerance window                   :          3   cycles
 max. number of SCF cycles                      :       9999
 number of fixed-spin iterations                :         10
 smearing scheme                                : Gaussian
 smearing width                                 : 0.1000       eV
 Fermi energy convergence tolerance             : 0.2721E-13   eV
 periodic dipole correction                     : NONE

 ************************** Density Mixing Parameters **************************
  
 density-mixing scheme                          : Pulay
 max. length of mixing history                  :         20
 charge density mixing amplitude                : 0.5000    
 cut-off energy for mixing                      :  600.0       eV
 charge density mixing g-vector                 :  1.500       1/A

 ********************* Electronic Spectroscopy Parameters **********************
  
 electronic spectroscopy with theory level      : DFT       
 spectroscopy calculation                       : band structure
 max. number of iterations                      :         60
 max. steps per iteration                       :          5
 number of bands / k-point                      :        140
 band convergence tolerance                     : 0.1000E-04   eV
 write orbitals file                            : on

 *******************************************************************************
  
 
                           -------------------------------
                                      Unit Cell
                           -------------------------------
        Real Lattice(A)                      Reciprocal Lattice(1/A)
   5.9866628  -3.4564014   0.0000000        1.0495305   0.0000000   0.0000000
   0.0000000   6.9128027   0.0000000        0.5247653   0.9089201   0.0000000
   0.0000000   0.0000000  13.5676159        0.0000000   0.0000000   0.4631017
 
                       Lattice parameters(A)       Cell Angles
                    a =    6.912803          alpha =   90.000000
                    b =    6.912803          beta  =   90.000000
                    c =   13.567616          gamma =  120.000000
 
                       Current cell volume =  561.490612       A**3
 
                           -------------------------------
                                     Cell Contents
                           -------------------------------
                         Total number of ions in cell =   18
                      Total number of species in cell =    5
                        Max number of any one species =    6
 
            xxxxxxxxxxxxxxxxxxxxxxxxxxxxxxxxxxxxxxxxxxxxxxxxxxxxxxxxxxxx
            x  Element    Atom        Fractional coordinates of atoms  x
            x            Number           u          v          w      x
            x----------------------------------------------------------x
            x  H            1         0.078438   1.130119   0.448663   x 
            x  H            2         0.094032   0.429435   0.461740   x 
            x  H            3         0.695612   1.213306   0.391172   x 
            x  H            4         0.301026   0.448868   0.519137   x 
            x  O            1        -0.050366   0.470760   0.375009   x 
            x  O            2         0.582641   0.054122   0.374850   x 
            x  O            3         0.143232   0.349215   0.507966   x 
            x  O            4         0.026989  -0.008168   0.405042   x 
            x  Si           1         0.016689  -0.009409   0.086698   x 
            x  Si           2         0.047318   0.014795   0.285177   x 
            x  Sc           1         0.681177   0.345311   0.112995   x 
            x  Sc           2         0.355279   0.655366   0.121407   x 
            x  Te           1         0.020289   0.635420   0.260301   x 
            x  Te           2         0.408226   0.380896   0.264246   x 
            x  Te           3         0.687685   0.021765   0.248508   x 
            x  Te           4         0.691169   0.679902  -0.010729   x 
            x  Te           5         0.020223   0.320533  -0.000344   x 
            x  Te           6         0.341055  -0.011173  -0.000869   x 
            xxxxxxxxxxxxxxxxxxxxxxxxxxxxxxxxxxxxxxxxxxxxxxxxxxxxxxxxxxxx
 
 
                         No user defined ionic velocities
 
                           -------------------------------
                                   Details of Species
                           -------------------------------
 
                               Mass of species in AMU
                                    H    1.0080000
                                    O   15.9989996
                                    Si   28.0849991
                                    Sc   44.9560013
                                    Te  127.5999985
 
                          Electric Quadrupole Moment (Barn)
                                    H    0.0028600 Isotope  2
                                    O   -0.0255800 Isotope 17
                                    Si    1.0000000 No Isotope Defined
                                    Sc   -0.2200000 Isotope 45
                                    Te    1.0000000 No Isotope Defined
 
                          Files used for pseudopotentials:
                                    H H_00PBE_OP.recpot
                                    O O_00PBE_OP.recpot
                                    Si Si_00PBE_OP.recpot
                                    Sc Sc_00.recpot
                                    Te Te_00.recpot
 
                           -------------------------------
                              k-Points For BZ Sampling
                           -------------------------------
                       MP grid size for SCF calculation is  2  2  1
                            with an offset of   0.000  0.000  0.000
                       Number of kpoints used =             2
 
                           -------------------------------
                               Symmetry and Constraints
                           -------------------------------
 
                      Maximum deviation from symmetry =  0.00000         ANG
 
         There are no symmetry operations specified or generated for this cell
         There are no ionic constraints specified or generated for this cell
                      Point group of crystal =     1: C1, 1, 1
                      Space group of crystal =     1: P1, P 1
 
 
                         Centre of mass is NOT constrained
 
                         Number of cell constraints= 0
                         Cell constraints are:  1 2 3 4 5 6
 
                         External pressure/stress (GPa)
                          0.00000   0.00000   0.00000
                                    0.00000   0.00000
                                              0.00000
 
+---------------- MEMORY AND SCRATCH DISK ESTIMATES PER PROCESS --------------+
|                                                     Memory          Disk    |
|                                               ----------------------------- |
| Approx. total storage required per process           68.6 MB         0.0 MB |
|                                                                             |
| Requirements will fluctuate during execution and may exceed these estimates |
+-----------------------------------------------------------------------------+
 
  =====================================================================
  +                                                                   +
  +                 Calculation of Spectral Properties                +
  +                                                                   +
  + Calculation re-parallelised over 48 processes.                    +
  + Data distributed by G-vector(6-way), k-point(8-way), band(1-way)  +
  + Data distributed by G-vector(6-way), k-point(8-way)               +
  +                                                                   +
  =====================================================================
  Starting k-point:        1 of        1 on this process      |<-- SPEC
  Total time to compute matrix elements             46.22 sec |<-- SPEC
  

Writing model to ScSiTe3__0_0_1__BandStr.orbitals
  + Calculation re-parallelised over 48 processes.                    +
  + Data distributed by G-vector(24-way), k-point(2-way)              +
 
 *********************** Forces ***********************
 *                                                    *
 *            Cartesian components (eV/A)             *
 * -------------------------------------------------- *
 *                   x            y            z      *
 *                                                    *
 * H         1      0.00247      0.00032     -0.00053 *
 * H         2     -0.00179     -0.00213     -0.00059 *
 * H         3      0.00190      0.00092      0.00094 *
 * H         4      0.00260      0.00035      0.00116 *
 * O         1     -0.00331      0.00047     -0.00062 *
 * O         2      0.00582      0.00202     -0.00003 *
 * O         3     -0.01611     -0.00494     -0.00346 *
 * O         4     -0.00130      0.00198      0.00317 *
 * Si        1      0.00101     -0.00488      0.00373 *
 * Si        2     -0.00118      0.00502     -0.00019 *
 * Sc        1     -0.00319      0.00133      0.01176 *
 * Sc        2      0.00310      0.00477     -0.00372 *
 * Te        1     -0.00097     -0.00143     -0.00100 *
 * Te        2      0.01043     -0.00214     -0.00095 *
 * Te        3     -0.00203     -0.00027     -0.00050 *
 * Te        4     -0.00034      0.00074     -0.00265 *
 * Te        5      0.00146      0.00011     -0.00441 *
 * Te        6      0.00143     -0.00225     -0.00213 *
 *                                                    *
 ******************************************************

Writing analysis data to ScSiTe3__0_0_1__BandStr.castep_bin

Writing model to ScSiTe3__0_0_1__BandStr.check
 
 A BibTeX formatted list of references used in this run has been written to 
 ScSiTe3__0_0_1__BandStr.bib
 
Initialisation time =      9.05 s
Calculation time    =     50.23 s
Finalisation time   =      0.25 s
Total time          =     59.53 s
  
Overall parallel efficiency rating: Mediocre (57%)                              
  
Data was distributed by:-
G-vector (24-way); efficiency rating: Satisfactory (61%)                        
k-point (2-way); efficiency rating: Very good (83%)                             
  
Parallel notes:
1) Calculation only took 59.5 s, so efficiency estimates may be inaccurate.     
