 Job started on host DESKTOP-1C867QN
 at Tue May 27 09:52:56 2025

 +-------------------------------------------------+
 |                                                 |
 |      CCC   AA    SSS  TTTTT  EEEEE  PPPP        |
 |     C     A  A  S       T    E      P   P       |
 |     C     AAAA   SS     T    EEE    PPPP        |
 |     C     A  A     S    T    E      P           |
 |      CCC  A  A  SSS     T    EEEEE  P           |
 |                                                 |
 +-------------------------------------------------+
 |                                                 |
 | Materials Studio CASTEP version 2017            |
 | Ab Initio Total Energy Program                  |
 |                                                 |
 | Authors:                                        |
 | M. Segall, M. Probert, C. Pickard, P. Hasnip,   |
 | S. Clark, K. Refson, J. R. Yates, M. Payne      |
 |                                                 |
 | Contributors:                                   |
 | P. Lindan, P. Haynes, J. White, V. Milman,      |
 | N. Govind, M. Gibson, P. Tulip, V. Cocula,      |
 | B. Montanari, D. Quigley, M. Glover,            |
 | L. Bernasconi, A. Perlov, M. Plummer,           |
 | E. McNellis, J. Meyer, J. Gale, D. Jochym       |
 | J. Aarons, B. Walker, R. Gillen, D. Jones       |
 | T. Green, I. J. Bush, C. J. Armstrong,          |
 | E. J. Higgins, E. L. Brown, M. S. McFly         |
 |                                                 |
 | Copyright (c) 2000 - 2016                       |
 |                                                 |
 | Please cite                                     |
 |                                                 |
 |     "First principles methods using CASTEP"     |
 |                                                 |
 |         Zeitschrift fuer Kristallographie       |
 |           220(5-6) pp. 567-570 (2005)           |
 |                                                 |
 | S. J. Clark, M. D. Segall, C. J. Pickard,       |
 | P. J. Hasnip, M. J. Probert, K. Refson,         |
 | M. C. Payne                                     |
 |                                                 |
 |       in all publications arising from          |
 |              your use of CASTEP                 |
 |                                                 |
 +-------------------------------------------------+
 
 
 This version was compiled for x86_64-windows-msvc2008 on May 05 2016
 Intel(R) Math Kernel Library Version 11.1.2 
 Fundamental constants values: CODATA 2010
 
License checkout of MS_castep successful
 
 
 Atomic calculation performed for Al: 1s2 2s2 2p6 3s2 3p1
 
 Converged in 54 iterations to an ae energy of -6603.782 eV
 
 Identity difference: 1.59E-02
 
   ============================================================                
   | Pseudopotential Report - Date of generation 27-05-2025   |                
   ------------------------------------------------------------                
   | Element: Al Ionic charge:  3.00 Level of theory: PBE     |                
   | Atomic Solver: Koelling-Harmon                           |                
   |                                                          |                
   |               Reference Electronic Structure             |                
   |         Orbital         Occupation         Energy        |                
   |            3s              2.000           -0.285        |                
   |            3p              1.000           -0.100        |                
   |                                                          |                
   |                 Pseudopotential Definition               |                
   |        Beta     l      e      Rc     scheme   norm       |                
   |          1      0   -0.285   1.597     qc      1         |                
   |          2      2    0.000   1.597     qc      1         |                
   |         loc     1   -0.100   1.597     qc      1         |                
   |                                                          |                
   | No charge augmentation                                   |                
   | Partial core correction Rc = 1.116                       |                
   ------------------------------------------------------------                
   | "1|1.6|5|7|9|30N:31L:32N[]"                              |                
   ------------------------------------------------------------                
   |      Author: Chris J. Pickard, Cambridge University      |                
   ============================================================                
 
 Doing a self consistent calculation for the test configuration
 
 Atomic calculation performed for Al: 1s2 2s2 2p6 3s2 3p1
 
 Converged in 54 iterations to an ae energy of -6603.782 eV
 
 ---------------------------------------
 AE eigenvalue nl 10 =      -55.53347827
 AE eigenvalue nl 20 =       -3.97499262
 AE eigenvalue nl 21 =       -2.55933606
 AE eigenvalue nl 30 =       -0.28491403
 AE eigenvalue nl 31 =       -0.09966789
 ---------------------------------------
 PS eigenvalue nl 30 =       -0.28486787
 PS eigenvalue nl 31 =       -0.09954199
 ---------------------------------------
 Maximum eigenvalue error:   1.26E-04
 
 Derived cutoff energies: C=   2 M=   4 F=   4 E=   8
 
 
 ***************************************
 
 Atomic calculation performed for Si: 1s2 2s2 2p6 3s2 3p2
 
 Converged in 54 iterations to an ae energy of -7886.857 eV
 
 Identity difference: 2.03E-02
 
   ============================================================                
   | Pseudopotential Report - Date of generation 27-05-2025   |                
   ------------------------------------------------------------                
   | Element: Si Ionic charge:  4.00 Level of theory: PBE     |                
   | Atomic Solver: Koelling-Harmon                           |                
   |                                                          |                
   |               Reference Electronic Structure             |                
   |         Orbital         Occupation         Energy        |                
   |            3s              2.000           -0.397        |                
   |            3p              2.000           -0.150        |                
   |                                                          |                
   |                 Pseudopotential Definition               |                
   |        Beta     l      e      Rc     scheme   norm       |                
   |          1      0   -0.397   1.599     qc      1         |                
   |          2      2    0.000   1.599     qc      1         |                
   |         loc     1   -0.150   1.599     qc      1         |                
   |                                                          |                
   | No charge augmentation                                   |                
   | Partial core correction Rc = 1.117                       |                
   ------------------------------------------------------------                
   | "1|1.6|6|7|9|30N:31L:32N[]"                              |                
   ------------------------------------------------------------                
   |      Author: Chris J. Pickard, Cambridge University      |                
   ============================================================                
 
 Doing a self consistent calculation for the test configuration
 
 Atomic calculation performed for Si: 1s2 2s2 2p6 3s2 3p2
 
 Converged in 54 iterations to an ae energy of -7886.857 eV
 
 ---------------------------------------
 AE eigenvalue nl 10 =      -65.63192903
 AE eigenvalue nl 20 =       -5.12654326
 AE eigenvalue nl 21 =       -3.51173659
 AE eigenvalue nl 30 =       -0.39736430
 AE eigenvalue nl 31 =       -0.14998156
 ---------------------------------------
 PS eigenvalue nl 30 =       -0.39735312
 PS eigenvalue nl 31 =       -0.14996116
 ---------------------------------------
 Maximum eigenvalue error:   2.04E-05
 
 Derived cutoff energies: C=   2 M=   6 F=   6 E=   8
 
 
 ***************************************
 
 Atomic calculation performed for Te:
 1s2 2s2 2p6 3s2 3p6 3d10 4s2 4p6 4d10 5s2 5p4
 
 Converged in 74 iterations to an ae energy of -184887.051 eV
 
 Identity difference: 6.08E-02
 
   ============================================================                
   | Pseudopotential Report - Date of generation 27-05-2025   |                
   ------------------------------------------------------------                
   | Element: Te Ionic charge:  6.00 Level of theory: PBE     |                
   | Atomic Solver: Koelling-Harmon                           |                
   |                                                          |                
   |               Reference Electronic Structure             |                
   |         Orbital         Occupation         Energy        |                
   |            5s              2.000           -0.555        |                
   |            5p              4.000           -0.219        |                
   |                                                          |                
   |                 Pseudopotential Definition               |                
   |        Beta     l      e      Rc     scheme   norm       |                
   |          1      0   -0.555   2.204     qc      1         |                
   |          2      1   -0.219   2.204     qc      1         |                
   |         loc     2    0.000   2.204     pn      0         |                
   |                                                          |                
   | No charge augmentation                                   |                
   | Partial core correction Rc = 1.540                       |                
   ------------------------------------------------------------                
   | "2|2.2|4.8|7.4|9.2|50N:51N[]"                            |                
   ------------------------------------------------------------                
   |      Author: Chris J. Pickard, Cambridge University      |                
   ============================================================                
 
 Doing a self consistent calculation for the test configuration
 
 Atomic calculation performed for Te:
 1s2 2s2 2p6 3s2 3p6 3d10 4s2 4p6 4d10 5s2 5p4
 
 Converged in 74 iterations to an ae energy of -184887.051 eV
 
 ---------------------------------------
 AE eigenvalue nl 10 =    -1162.35227488
 AE eigenvalue nl 20 =     -178.24632272
 AE eigenvalue nl 21 =     -160.00620108
 AE eigenvalue nl 30 =      -35.47173737
 AE eigenvalue nl 31 =      -29.54318713
 AE eigenvalue nl 32 =      -20.58152877
 AE eigenvalue nl 40 =       -6.04112586
 AE eigenvalue nl 41 =       -4.20445800
 AE eigenvalue nl 42 =       -1.53071897
 AE eigenvalue nl 50 =       -0.55522942
 AE eigenvalue nl 51 =       -0.21878005
 ---------------------------------------
 PS eigenvalue nl 50 =       -0.55521691
 PS eigenvalue nl 51 =       -0.21877065
 ---------------------------------------
 Maximum eigenvalue error:   1.25E-05
 
 Derived cutoff energies: C=   4 M=   6 F=   8 E=  10
 
 
 ***************************************
 
 Pseudo atomic calculation performed for Al 3s2 3p1
 
 Converged in 16 iterations to a total energy of -192.9803 eV
 
 
 Pseudo atomic calculation performed for Si 3s2 3p2
 
 Converged in 17 iterations to a total energy of -215.5380 eV
 
 
 Pseudo atomic calculation performed for Te 5s2 5p4
 
 Converged in 17 iterations to a total energy of -568.4201 eV
 
 Calculation parallelised over 48 processes.
 Data is distributed by G-vector(24-way) and k-point(2-way)

 ************************************ Title ************************************
 CASTEP calculation from Materials Studio

 ***************************** General Parameters ******************************
  
 output verbosity                               : normal  (1)
 write checkpoint data to                       : AlSiTe3__0_0_1_.check
 type of calculation                            : geometry optimization
 stress calculation                             : on
 density difference calculation                 : off
 electron localisation func (ELF) calculation   : off
 Hirshfeld analysis                             : off
 unlimited duration calculation
 timing information                             : on
 memory usage estimate                          : on
 write final potential to formatted file        : off
 write final density to formatted file          : off
 write BibTeX reference list                    : on
 write OTFG pseudopotential files               : on
 checkpoint writing                             : both castep_bin and check files
  
 output         length unit                     : A
 output           mass unit                     : amu
 output           time unit                     : ps
 output         charge unit                     : e
 output           spin unit                     : hbar/2
 output         energy unit                     : eV
 output          force unit                     : eV/A
 output       velocity unit                     : A/ps
 output       pressure unit                     : GPa
 output     inv_length unit                     : 1/A
 output      frequency unit                     : cm-1
 output force constant unit                     : eV/A**2
 output         volume unit                     : A**3
 output   IR intensity unit                     : (D/A)**2/amu
 output         dipole unit                     : D
 output         efield unit                     : eV/A/e
 output        entropy unit                     : J/mol/K
  
 wavefunctions paging                           : none
 random number generator seed                   : randomised (95257699)
 data distribution                              : optimal for this architecture
 optimization strategy                          : maximize speed(+++)

 *********************** Exchange-Correlation Parameters ***********************
  
 using functional                               : Perdew Burke Ernzerhof
 relativistic treatment                         : Koelling-Harmon
 DFT+D: Semi-empirical dispersion correction    : off

 ************************* Pseudopotential Parameters **************************
  
 pseudopotential representation                 : reciprocal space
 <beta|phi> representation                      : reciprocal space
 spin-orbit coupling                            : off

 **************************** Basis Set Parameters *****************************
  
 plane wave basis set cut-off                   :   280.0000   eV
 size of standard grid                          :     2.0000
 size of   fine   grid                          :     3.0000
 size of   fine   gmax                          :    25.7181   1/A
 largest prime factor in FFT                    :          5
 finite basis set correction                    : automatic
 number of sample energies                      :          3
           sample  spacing                      :     5.0000   eV

 **************************** Electronic Parameters ****************************
  
 number of  electrons                           :  50.00    
 net charge of system                           :  0.000    
 treating system as non-spin-polarized
 number of bands                                :         25

 ********************* Electronic Minimization Parameters **********************
  
 Method: Treating system as non-metallic,
         and number of  SD  steps               :          1
         and number of  CG  steps               :          4
  
 total energy / atom convergence tol.           : 0.5000E-06   eV
 eigen-energy convergence tolerance             : 0.2000E-06   eV
 max force / atom convergence tol.              : ignored
 convergence tolerance window                   :          3   cycles
 max. number of SCF cycles                      :       9999
 periodic dipole correction                     : NONE

 ************************** Density Mixing Parameters **************************
  
 density-mixing scheme                          : Pulay
 max. length of mixing history                  :         20
 charge density mixing amplitude                : 0.5000    
 cut-off energy for mixing                      :  280.0       eV
 charge density mixing g-vector                 :  1.500       1/A

 ********************** Geometry Optimization Parameters ***********************
  
 optimization method                            : BFGS
 variable cell method                           : fixed basis size
 max. number of steps                           :       9999
 estimated bulk modulus                         :  500.0       GPa
 estimated <frequency>                          :  1668.       cm-1
 geom line minimiser                            : on
 with line minimiser tolerance                  :     0.4000
 total energy convergence tolerance             : 0.5000E-05   eV/atom
        max ionic |force| tolerance             : 0.1000E-01   eV/A
 max ionic |displacement| tolerance             : 0.5000E-03   A
   max |stress component| tolerance             : 0.2000E-01   GPa
 convergence tolerance window                   :          2   steps
 backup results every                           :          5   steps

 *******************************************************************************
  
 
                           -------------------------------
                                      Unit Cell
                           -------------------------------
        Real Lattice(A)                      Reciprocal Lattice(1/A)
   5.9443110  -3.4319495   0.0000000        1.0570082   0.0000000   0.0000000
   0.0000000   6.8638991   0.0000000        0.5285041   0.9153959   0.0000000
   0.0000000   0.0000000  13.4463962        0.0000000   0.0000000   0.4672765
 
                       Lattice parameters(A)       Cell Angles
                    a =    6.863899          alpha =   90.000000
                    b =    6.863899          beta  =   90.000000
                    c =   13.446396          gamma =  120.000000
 
                       Current cell volume =  548.628435       A**3
 
                           -------------------------------
                                     Cell Contents
                           -------------------------------
                         Total number of ions in cell =   10
                      Total number of species in cell =    3
                        Max number of any one species =    6
 
            xxxxxxxxxxxxxxxxxxxxxxxxxxxxxxxxxxxxxxxxxxxxxxxxxxxxxxxxxxxx
            x  Element    Atom        Fractional coordinates of atoms  x
            x            Number           u          v          w      x
            x----------------------------------------------------------x
            x  Al           1         0.666667   0.333333  -0.500000   x 
            x  Al           2        -0.666667  -0.333333   0.500000   x 
            x  Si           1         0.000000   0.000000  -0.585618   x 
            x  Si           2         0.000000   0.000000   0.585618   x 
            x  Te           1         0.000000  -0.355259  -0.369166   x 
            x  Te           2         0.355259   0.355259  -0.369166   x 
            x  Te           3        -0.355259  -0.000000  -0.369166   x 
            x  Te           4         0.355259  -0.000000   0.369166   x 
            x  Te           5        -0.355259  -0.355259   0.369166   x 
            x  Te           6         0.000000   0.355259   0.369166   x 
            xxxxxxxxxxxxxxxxxxxxxxxxxxxxxxxxxxxxxxxxxxxxxxxxxxxxxxxxxxxx
 
 
                         No user defined ionic velocities
 
                           -------------------------------
                                   Details of Species
                           -------------------------------
 
                               Mass of species in AMU
                                    Al   26.9820004
                                    Si   28.0849991
                                    Te  127.5999985
 
                          Electric Quadrupole Moment (Barn)
                                    Al    0.1466000 Isotope 27
                                    Si    1.0000000 No Isotope Defined
                                    Te    1.0000000 No Isotope Defined
 
                          Files used for pseudopotentials:
                                    Al 1|1.6|5|7|9|30N:31L:32N[]
                                    Si 1|1.6|6|7|9|30N:31L:32N[]
                                    Te 2|2.2|4.8|7.4|9.2|50N:51N[]
 
                           -------------------------------
                              k-Points For BZ Sampling
                           -------------------------------
                       MP grid size for SCF calculation is  2  2  2
                            with an offset of   0.250  0.250  0.000
                       Number of kpoints used =             2
 
                           -------------------------------
                               Symmetry and Constraints
                           -------------------------------
 
                      Maximum deviation from symmetry = 0.298570E-14     ANG
 
                      Number of symmetry operations   =          12
         There are no ionic constraints specified or generated for this cell
                      Point group of crystal =    20: D3d, -3m, -3 2/m
                      Space group of crystal =   162: P-31m, -P 3 2
 
             Set iprint > 1 for details on symmetry rotations/translations
 
                         Centre of mass is NOT constrained
 
                         Number of cell constraints= 4
                         Cell constraints are:  1 1 3 0 0 0
 
                         External pressure/stress (GPa)
                          0.00000   0.00000   0.00000
                                    0.00000   0.00000
                                              0.00000
  
+---------------- MEMORY AND SCRATCH DISK ESTIMATES PER PROCESS --------------+
|                                                     Memory          Disk    |
| Baseline code, static data and system overhead        0.0 MB         0.0 MB |
| BLAS internal memory storage                          0.0 MB         0.0 MB |
| Model and support data                               18.0 MB         0.0 MB |
| Electronic energy minimisation requirements           1.8 MB         0.0 MB |
| Force calculation requirements                        2.6 MB         0.0 MB |
| Stress calculation requirements                       3.1 MB         0.0 MB |
|                                               ----------------------------- |
| Approx. total storage required per process           21.1 MB         0.0 MB |
|                                                                             |
| Requirements will fluctuate during execution and may exceed these estimates |
+-----------------------------------------------------------------------------+
Calculating finite basis set correction with  3 cut-off energies.
Calculating total energy with cut-off of  270.000eV.
------------------------------------------------------------------------ <-- SCF
SCF loop      Energy                           Energy gain       Timer   <-- SCF
                                               per atom          (sec)   <-- SCF
------------------------------------------------------------------------ <-- SCF
Initial  -1.78057919E+003                                         27.27  <-- SCF
      1  -3.92480353E+003                    2.14422434E+002      27.41  <-- SCF
      2  -4.24528606E+003                    3.20482527E+001      27.48  <-- SCF
      3  -4.26700238E+003                    2.17163240E+000      27.56  <-- SCF
      4  -4.26731439E+003                    3.12006478E-002      27.77  <-- SCF
      5  -4.26720904E+003                   -1.05346004E-002      27.95  <-- SCF
      6  -4.26720691E+003                   -2.13260827E-004      28.14  <-- SCF
      7  -4.26719844E+003                   -8.46436030E-004      28.31  <-- SCF
      8  -4.26719166E+003                   -6.78638326E-004      28.50  <-- SCF
      9  -4.26718640E+003                   -5.25916178E-004      28.69  <-- SCF
     10  -4.26718904E+003                    2.64235330E-004      28.86  <-- SCF
     11  -4.26719093E+003                    1.88994115E-004      29.03  <-- SCF
     12  -4.26719353E+003                    2.60020882E-004      29.20  <-- SCF
     13  -4.26719373E+003                    2.00583715E-005      29.41  <-- SCF
     14  -4.26719393E+003                    2.00394578E-005      29.55  <-- SCF
     15  -4.26719394E+003                    1.32147140E-006      29.72  <-- SCF
     16  -4.26719395E+003                    7.12811957E-007      29.89  <-- SCF
     17  -4.26719395E+003                    1.48094758E-007      30.05  <-- SCF
     18  -4.26719395E+003                    9.40275508E-008      30.20  <-- SCF
------------------------------------------------------------------------ <-- SCF
 
Final energy =  -4267.193953584     eV
(energy not corrected for finite basis set)
 
Calculating total energy with cut-off of  275.000eV.
------------------------------------------------------------------------ <-- SCF
SCF loop      Energy                           Energy gain       Timer   <-- SCF
                                               per atom          (sec)   <-- SCF
------------------------------------------------------------------------ <-- SCF
Initial  -4.26719395E+003                                         30.50  <-- SCF
      1  -4.26722070E+003                    2.67485801E-003      30.58  <-- SCF
      2  -4.26722070E+003                    4.71743784E-007      30.77  <-- SCF
      3  -4.26722070E+003                   -1.22102375E-007      30.92  <-- SCF
      4  -4.26722073E+003                    2.53057668E-006      31.09  <-- SCF
      5  -4.26722073E+003                    2.53174419E-007      31.25  <-- SCF
      6  -4.26722073E+003                    2.32012037E-008      31.39  <-- SCF
------------------------------------------------------------------------ <-- SCF
 
Final energy =  -4267.220730292     eV
(energy not corrected for finite basis set)
 
Calculating total energy with cut-off of  280.000eV.
------------------------------------------------------------------------ <-- SCF
SCF loop      Energy                           Energy gain       Timer   <-- SCF
                                               per atom          (sec)   <-- SCF
------------------------------------------------------------------------ <-- SCF
Initial  -4.26722073E+003                                         31.62  <-- SCF
      1  -4.26724317E+003                    2.24428916E-003      31.70  <-- SCF
      2  -4.26724317E+003                    3.32416145E-007      31.86  <-- SCF
      3  -4.26724317E+003                   -2.73771528E-007      32.02  <-- SCF
      4  -4.26724319E+003                    2.34155027E-006      32.17  <-- SCF
      5  -4.26724320E+003                    2.44445894E-007      32.33  <-- SCF
      6  -4.26724320E+003                    1.98784707E-008      32.48  <-- SCF
------------------------------------------------------------------------ <-- SCF
 
Final energy =  -4267.243196085     eV
(energy not corrected for finite basis set)
 
 For future reference: finite basis dEtot/dlog(Ecut) =      -1.306171eV
 Total energy corrected for finite basis set =   -4267.242100 eV
 
+---------------- MEMORY AND SCRATCH DISK ESTIMATES PER PROCESS --------------+
|                                                     Memory          Disk    |
| Model and support data                               28.6 MB         0.0 MB |
| Electronic energy minimisation requirements           1.8 MB         0.0 MB |
| Geometry minimisation requirements                    2.1 MB         0.0 MB |
|                                               ----------------------------- |
| Approx. total storage required per process           32.5 MB         0.0 MB |
|                                                                             |
| Requirements will fluctuate during execution and may exceed these estimates |
+-----------------------------------------------------------------------------+
 
 
 *********************************** Forces ***********************************
 *                                                                            *
 *                        Cartesian components (eV/A)                         *
 * -------------------------------------------------------------------------- *
 *                   x                    y                    z              *
 *                                                                            *
 * Al        1     -0.00000              0.00000             -0.00000         *
 * Al        2      0.00000              0.00000              0.00000         *
 * Si        1      0.00000              0.00000              0.16623         *
 * Si        2      0.00000              0.00000             -0.16623         *
 * Te        1     -0.00000             -0.18272              0.13073         *
 * Te        2      0.15824              0.09136              0.13073         *
 * Te        3     -0.15824              0.09136              0.13073         *
 * Te        4      0.15824             -0.09136             -0.13073         *
 * Te        5     -0.15824             -0.09136             -0.13073         *
 * Te        6      0.00000              0.18272             -0.13073         *
 *                                                                            *
 ******************************************************************************
 
 ***************** Stress Tensor *****************
 *                                               *
 *          Cartesian components (GPa)           *
 * --------------------------------------------- *
 *             x             y             z     *
 *                                               *
 *  x     -0.766878      0.000000      0.000000  *
 *  y      0.000000     -0.766878      0.000000  *
 *  z      0.000000      0.000000     -0.325237  *
 *                                               *
 *  Pressure:    0.6197                          *
 *                                               *
 *************************************************
 BFGS: finished iteration     0 with enthalpy= -4.26724320E+003 eV
  
 +-----------+-----------------+-----------------+------------+-----+ <-- BFGS
 | Parameter |      value      |    tolerance    |    units   | OK? | <-- BFGS
 +-----------+-----------------+-----------------+------------+-----+ <-- BFGS
 |  dE/ion   |   0.000000E+000 |   5.000000E-006 |         eV | No  | <-- BFGS
 |  |F|max   |   2.246660E-001 |   1.000000E-002 |       eV/A | No  | <-- BFGS
 |  |dR|max  |   0.000000E+000 |   5.000000E-004 |          A | No  | <-- BFGS
 |   Smax    |   7.668780E-001 |   2.000000E-002 |        GPa | No  | <-- BFGS
 +-----------+-----------------+-----------------+------------+-----+ <-- BFGS
  

================================================================================
 Starting BFGS iteration          1 ...
================================================================================
  
 +------------+-------------+-------------+-----------------+ <-- min BFGS
 |    Step    |   lambda    |   F.delta'  |    enthalpy     | <-- min BFGS
 +------------+-------------+-------------+-----------------+ <-- min BFGS
 |  previous  |    0.000000 |    0.160798 |    -4267.243196 | <-- min BFGS
 +------------+-------------+-------------+-----------------+ <-- min BFGS
  

--------------------------------------------------------------------------------
 BFGS: starting iteration         1 with trial guess (lambda=  1.000000)
--------------------------------------------------------------------------------
 
                           -------------------------------
                                      Unit Cell
                           -------------------------------
        Real Lattice(A)              Reciprocal Lattice(1/A)
   5.9473500  -3.4337041  -0.0000000        1.0564681  -0.0000000   0.0000000
   0.0000000   6.8674083   0.0000000        0.5282340   0.9149282  -0.0000000
   0.0000000   0.0000000  13.4493117        0.0000000  -0.0000000   0.4671752
 
                       Lattice parameters(A)       Cell Angles
                    a =    6.867408          alpha =   90.000000
                    b =    6.867408          beta  =   90.000000
                    c =   13.449312          gamma =  120.000000
 
                Current cell volume =  549.308631 A**3
 
                           -------------------------------
                                     Cell Contents
                           -------------------------------
 
            xxxxxxxxxxxxxxxxxxxxxxxxxxxxxxxxxxxxxxxxxxxxxxxxxxxxxxxxxxxx
            x  Element    Atom        Fractional coordinates of atoms  x
            x            Number           u          v          w      x
            x----------------------------------------------------------x
            x  Al           1         0.666667   0.333333  -0.500000   x
            x  Al           2        -0.666667  -0.333333   0.500000   x
            x  Si           1         0.000000   0.000000  -0.585604   x
            x  Si           2         0.000000   0.000000   0.585604   x
            x  Te           1         0.000000  -0.355288  -0.369155   x
            x  Te           2         0.355288   0.355288  -0.369155   x
            x  Te           3        -0.355288  -0.000000  -0.369155   x
            x  Te           4         0.355288  -0.000000   0.369155   x
            x  Te           5        -0.355288  -0.355288   0.369155   x
            x  Te           6         0.000000   0.355288   0.369155   x
            xxxxxxxxxxxxxxxxxxxxxxxxxxxxxxxxxxxxxxxxxxxxxxxxxxxxxxxxxxxx
 
 
------------------------------------------------------------------------ <-- SCF
SCF loop      Energy                           Energy gain       Timer   <-- SCF
                                               per atom          (sec)   <-- SCF
------------------------------------------------------------------------ <-- SCF
Initial  -4.26723952E+003                                         33.41  <-- SCF
      1  -4.26724813E+003                    8.61441681E-004      33.48  <-- SCF
      2  -4.26724825E+003                    1.21087841E-005      33.69  <-- SCF
      3  -4.26724575E+003                   -2.50133922E-004      33.88  <-- SCF
      4  -4.26724534E+003                   -4.12170937E-005      34.06  <-- SCF
      5  -4.26724522E+003                   -1.24513327E-005      34.23  <-- SCF
      6  -4.26724513E+003                   -8.68905450E-006      34.41  <-- SCF
      7  -4.26724507E+003                   -6.14055441E-006      34.58  <-- SCF
      8  -4.26724508E+003                    1.59325236E-006      34.73  <-- SCF
      9  -4.26724515E+003                    6.21392329E-006      34.89  <-- SCF
     10  -4.26724523E+003                    8.86066600E-006      35.05  <-- SCF
     11  -4.26724529E+003                    5.34533314E-006      35.22  <-- SCF
     12  -4.26724533E+003                    4.02287520E-006      35.38  <-- SCF
     13  -4.26724533E+003                    2.67963802E-007      35.52  <-- SCF
     14  -4.26724533E+003                    1.43604818E-007      35.69  <-- SCF
------------------------------------------------------------------------ <-- SCF
 
Final energy =  -4267.245331663     eV
(energy not corrected for finite basis set)
 
 
 *********************************** Forces ***********************************
 *                                                                            *
 *                        Cartesian components (eV/A)                         *
 * -------------------------------------------------------------------------- *
 *                   x                    y                    z              *
 *                                                                            *
 * Al        1      0.00000              0.00000              0.00000         *
 * Al        2     -0.00000              0.00000             -0.00000         *
 * Si        1      0.00000             -0.00000              0.15814         *
 * Si        2      0.00000              0.00000             -0.15814         *
 * Te        1      0.00000             -0.17275              0.12258         *
 * Te        2      0.14961              0.08637              0.12258         *
 * Te        3     -0.14961              0.08637              0.12258         *
 * Te        4      0.14961             -0.08637             -0.12258         *
 * Te        5     -0.14961             -0.08637             -0.12258         *
 * Te        6     -0.00000              0.17275             -0.12258         *
 *                                                                            *
 ******************************************************************************
 
 ***************** Stress Tensor *****************
 *                                               *
 *          Cartesian components (GPa)           *
 * --------------------------------------------- *
 *             x             y             z     *
 *                                               *
 *  x     -0.712987     -0.000000      0.000000  *
 *  y     -0.000000     -0.712987     -0.000000  *
 *  z      0.000000     -0.000000     -0.303341  *
 *                                               *
 *  Pressure:    0.5764                          *
 *                                               *
 *************************************************
  
 +------------+-------------+-------------+-----------------+ <-- min BFGS
 |    Step    |   lambda    |   F.delta'  |    enthalpy     | <-- min BFGS
 +------------+-------------+-------------+-----------------+ <-- min BFGS
 |  previous  |    0.000000 |    0.160798 |    -4267.243196 | <-- min BFGS
 | trial step |    1.000000 |    0.149917 |    -4267.245332 | <-- min BFGS
 +------------+-------------+-------------+-----------------+ <-- min BFGS
  

--------------------------------------------------------------------------------
 BFGS: improving iteration         1 with line minimization (lambda= 14.778138)
--------------------------------------------------------------------------------
 
+---------------- MEMORY AND SCRATCH DISK ESTIMATES PER PROCESS --------------+
|                                                     Memory          Disk    |
| Model and support data                               28.6 MB         0.0 MB |
| Electronic energy minimisation requirements           1.8 MB         0.0 MB |
| Geometry minimisation requirements                    2.1 MB         0.0 MB |
|                                               ----------------------------- |
| Approx. total storage required per process           32.5 MB         0.0 MB |
|                                                                             |
| Requirements will fluctuate during execution and may exceed these estimates |
+-----------------------------------------------------------------------------+
 
 
                           -------------------------------
                                      Unit Cell
                           -------------------------------
        Real Lattice(A)              Reciprocal Lattice(1/A)
   5.9892223  -3.4578791  -0.0000000        1.0490820  -0.0000000   0.0000000
   0.0000000   6.9157583   0.0000000        0.5245410   0.9085317  -0.0000000
   0.0000000   0.0000000  13.4894820       -0.0000000  -0.0000000   0.4657840
 
                       Lattice parameters(A)       Cell Angles
                    a =    6.915758          alpha =   90.000000
                    b =    6.915758          beta  =   90.000000
                    c =   13.489482          gamma =  120.000000
 
                Current cell volume =  558.734531 A**3
 
                           -------------------------------
                                     Cell Contents
                           -------------------------------
 
            xxxxxxxxxxxxxxxxxxxxxxxxxxxxxxxxxxxxxxxxxxxxxxxxxxxxxxxxxxxx
            x  Element    Atom        Fractional coordinates of atoms  x
            x            Number           u          v          w      x
            x----------------------------------------------------------x
            x  Al           1         0.666667   0.333333  -0.500000   x
            x  Al           2        -0.666667  -0.333333   0.500000   x
            x  Si           1         0.000000   0.000000  -0.585414   x
            x  Si           2         0.000000   0.000000   0.585414   x
            x  Te           1         0.000000  -0.355698  -0.369005   x
            x  Te           2         0.355698   0.355698  -0.369005   x
            x  Te           3        -0.355698  -0.000000  -0.369005   x
            x  Te           4         0.355698  -0.000000   0.369005   x
            x  Te           5        -0.355698  -0.355698   0.369005   x
            x  Te           6         0.000000   0.355698   0.369005   x
            xxxxxxxxxxxxxxxxxxxxxxxxxxxxxxxxxxxxxxxxxxxxxxxxxxxxxxxxxxxx
 
 
------------------------------------------------------------------------ <-- SCF
SCF loop      Energy                           Energy gain       Timer   <-- SCF
                                               per atom          (sec)   <-- SCF
------------------------------------------------------------------------ <-- SCF
Initial  -4.26711715E+003                                         36.55  <-- SCF
      1  -4.26778213E+003                    6.64975302E-002      36.61  <-- SCF
      2  -4.26780390E+003                    2.17690191E-003      36.80  <-- SCF
      3  -4.26734019E+003                   -4.63709458E-002      36.98  <-- SCF
      4  -4.26725733E+003                   -8.28616891E-003      37.19  <-- SCF
      5  -4.26725180E+003                   -5.53022137E-004      37.38  <-- SCF
      6  -4.26724843E+003                   -3.36757043E-004      37.55  <-- SCF
      7  -4.26724997E+003                    1.54613267E-004      37.75  <-- SCF
      8  -4.26725010E+003                    1.29616497E-005      37.94  <-- SCF
      9  -4.26725113E+003                    1.02795251E-004      38.12  <-- SCF
     10  -4.26725190E+003                    7.67654631E-005      38.31  <-- SCF
     11  -4.26725208E+003                    1.81822712E-005      38.50  <-- SCF
     12  -4.26725243E+003                    3.43919942E-005      38.67  <-- SCF
     13  -4.26725249E+003                    6.29124808E-006      38.83  <-- SCF
     14  -4.26725255E+003                    5.89019438E-006      38.98  <-- SCF
     15  -4.26725256E+003                    8.39422523E-007      39.14  <-- SCF
     16  -4.26725256E+003                    1.79513351E-007      39.30  <-- SCF
     17  -4.26725256E+003                    1.59770379E-007      39.47  <-- SCF
------------------------------------------------------------------------ <-- SCF
 
Final energy =  -4267.252559225     eV
(energy not corrected for finite basis set)
 
 
 *********************************** Forces ***********************************
 *                                                                            *
 *                        Cartesian components (eV/A)                         *
 * -------------------------------------------------------------------------- *
 *                   x                    y                    z              *
 *                                                                            *
 * Al        1      0.00000              0.00000              0.00000         *
 * Al        2     -0.00000              0.00000              0.00000         *
 * Si        1      0.00000             -0.00000              0.04913         *
 * Si        2     -0.00000              0.00000             -0.04913         *
 * Te        1      0.00000             -0.04244              0.01153         *
 * Te        2      0.03675              0.02122              0.01153         *
 * Te        3     -0.03675              0.02122              0.01153         *
 * Te        4      0.03675             -0.02122             -0.01153         *
 * Te        5     -0.03675             -0.02122             -0.01153         *
 * Te        6     -0.00000              0.04244             -0.01153         *
 *                                                                            *
 ******************************************************************************
 
 ***************** Stress Tensor *****************
 *                                               *
 *          Cartesian components (GPa)           *
 * --------------------------------------------- *
 *             x             y             z     *
 *                                               *
 *  x     -0.010212     -0.000000      0.000000  *
 *  y     -0.000000     -0.010212      0.000000  *
 *  z      0.000000      0.000000     -0.016411  *
 *                                               *
 *  Pressure:    0.0123                          *
 *                                               *
 *************************************************
  
 +------------+-------------+-------------+-----------------+ <-- min BFGS
 |    Step    |   lambda    |   F.delta'  |    enthalpy     | <-- min BFGS
 +------------+-------------+-------------+-----------------+ <-- min BFGS
 |  previous  |    0.000000 |    0.160798 |    -4267.243196 | <-- min BFGS
 | trial step |    1.000000 |    0.149917 |    -4267.245332 | <-- min BFGS
 |  line step |   14.778138 |    0.006249 |    -4267.252559 | <-- min BFGS
 +------------+-------------+-------------+-----------------+ <-- min BFGS
  
 BFGS: finished iteration     1 with enthalpy= -4.26725256E+003 eV
  
 +-----------+-----------------+-----------------+------------+-----+ <-- BFGS
 | Parameter |      value      |    tolerance    |    units   | OK? | <-- BFGS
 +-----------+-----------------+-----------------+------------+-----+ <-- BFGS
 |  dE/ion   |   9.363140E-004 |   5.000000E-006 |         eV | No  | <-- BFGS
 |  |F|max   |   4.913414E-002 |   1.000000E-002 |       eV/A | No  | <-- BFGS
 |  |dR|max  |   3.728901E-003 |   5.000000E-004 |          A | No  | <-- BFGS
 |   Smax    |   1.641111E-002 |   2.000000E-002 |        GPa | Yes | <-- BFGS
 +-----------+-----------------+-----------------+------------+-----+ <-- BFGS
  

================================================================================
 Starting BFGS iteration          2 ...
================================================================================
  
 +------------+-------------+-------------+-----------------+ <-- min BFGS
 |    Step    |   lambda    |   F.delta'  |    enthalpy     | <-- min BFGS
 +------------+-------------+-------------+-----------------+ <-- min BFGS
 |  previous  |    0.000000 |    0.007723 |    -4267.252559 | <-- min BFGS
 +------------+-------------+-------------+-----------------+ <-- min BFGS
  

--------------------------------------------------------------------------------
 BFGS: starting iteration         2 with trial guess (lambda=  1.000000)
--------------------------------------------------------------------------------
 
                           -------------------------------
                                      Unit Cell
                           -------------------------------
        Real Lattice(A)              Reciprocal Lattice(1/A)
   5.9909724  -3.4588895  -0.0000000        1.0487755  -0.0000000   0.0000000
   0.0000000   6.9177790   0.0000000        0.5243878   0.9082663  -0.0000000
   0.0000000   0.0000000  13.4912754        0.0000000  -0.0000000   0.4657221
 
                       Lattice parameters(A)       Cell Angles
                    a =    6.917779          alpha =   90.000000
                    b =    6.917779          beta  =   90.000000
                    c =   13.491275          gamma =  120.000000
 
                Current cell volume =  559.135425 A**3
 
                           -------------------------------
                                     Cell Contents
                           -------------------------------
 
            xxxxxxxxxxxxxxxxxxxxxxxxxxxxxxxxxxxxxxxxxxxxxxxxxxxxxxxxxxxx
            x  Element    Atom        Fractional coordinates of atoms  x
            x            Number           u          v          w      x
            x----------------------------------------------------------x
            x  Al           1         0.666667   0.333333  -0.500000   x
            x  Al           2        -0.666667  -0.333333   0.500000   x
            x  Si           1         0.000000   0.000000  -0.585402   x
            x  Si           2         0.000000   0.000000   0.585402   x
            x  Te           1         0.000000  -0.355722  -0.368998   x
            x  Te           2         0.355722   0.355722  -0.368998   x
            x  Te           3        -0.355722  -0.000000  -0.368998   x
            x  Te           4         0.355722  -0.000000   0.368998   x
            x  Te           5        -0.355722  -0.355722   0.368998   x
            x  Te           6         0.000000   0.355722   0.368998   x
            xxxxxxxxxxxxxxxxxxxxxxxxxxxxxxxxxxxxxxxxxxxxxxxxxxxxxxxxxxxx
 
 
------------------------------------------------------------------------ <-- SCF
SCF loop      Energy                           Energy gain       Timer   <-- SCF
                                               per atom          (sec)   <-- SCF
------------------------------------------------------------------------ <-- SCF
Initial  -4.26724893E+003                                         40.47  <-- SCF
      1  -4.26725297E+003                    4.04092323E-004      40.53  <-- SCF
      2  -4.26725302E+003                    4.15775691E-006      40.72  <-- SCF
      3  -4.26725215E+003                   -8.69468943E-005      40.91  <-- SCF
      4  -4.26725200E+003                   -1.47597208E-005      41.09  <-- SCF
      5  -4.26725194E+003                   -5.65831405E-006      41.27  <-- SCF
      6  -4.26725190E+003                   -4.61800783E-006      41.42  <-- SCF
      7  -4.26725186E+003                   -4.09405406E-006      41.58  <-- SCF
      8  -4.26725186E+003                    5.13034598E-007      41.75  <-- SCF
      9  -4.26725188E+003                    2.29850865E-006      41.91  <-- SCF
     10  -4.26725193E+003                    4.79728212E-006      42.06  <-- SCF
     11  -4.26725198E+003                    4.71658595E-006      42.22  <-- SCF
     12  -4.26725199E+003                    1.17277548E-006      42.38  <-- SCF
     13  -4.26725199E+003                    4.79230548E-008      42.56  <-- SCF
     14  -4.26725199E+003                    1.48282847E-008      42.72  <-- SCF
------------------------------------------------------------------------ <-- SCF
 
Final energy =  -4267.251990872     eV
(energy not corrected for finite basis set)
 
 
 *********************************** Forces ***********************************
 *                                                                            *
 *                        Cartesian components (eV/A)                         *
 * -------------------------------------------------------------------------- *
 *                   x                    y                    z              *
 *                                                                            *
 * Al        1     -0.00000              0.00000              0.00000         *
 * Al        2      0.00000              0.00000              0.00000         *
 * Si        1     -0.00000              0.00000              0.04350         *
 * Si        2      0.00000             -0.00000             -0.04350         *
 * Te        1      0.00000             -0.03641              0.00667         *
 * Te        2      0.03153              0.01821              0.00667         *
 * Te        3     -0.03153              0.01821              0.00667         *
 * Te        4      0.03153             -0.01821             -0.00667         *
 * Te        5     -0.03153             -0.01821             -0.00667         *
 * Te        6     -0.00000              0.03641             -0.00667         *
 *                                                                            *
 ******************************************************************************
 
 ***************** Stress Tensor *****************
 *                                               *
 *          Cartesian components (GPa)           *
 * --------------------------------------------- *
 *             x             y             z     *
 *                                               *
 *  x      0.018890     -0.000000      0.000000  *
 *  y     -0.000000      0.018890      0.000000  *
 *  z      0.000000      0.000000     -0.004664  *
 *                                               *
 *  Pressure:   -0.0110                          *
 *                                               *
 *************************************************
  
 +------------+-------------+-------------+-----------------+ <-- min BFGS
 |    Step    |   lambda    |   F.delta'  |    enthalpy     | <-- min BFGS
 +------------+-------------+-------------+-----------------+ <-- min BFGS
 |  previous  |    0.000000 |    0.007723 |    -4267.252559 | <-- min BFGS
 | trial step |    1.000000 |    0.001472 |    -4267.251991 | <-- min BFGS
 +------------+-------------+-------------+-----------------+ <-- min BFGS
  
 BFGS: Warning - trial step suggests complex energy landscape
                 in which simple line minimization will fail.
  
               - This is usually an indication that the forces/streses
                 are not accurate enough. Consider making the following changes:
  
                 1) Increase cutoff_energy or basis_precision
                 2) Reduce elec_energy_tol and/or elec_force_tol
                 3) Increase grid_scale
  
               - Proceeding with a bisection search to find root instead.
  

--------------------------------------------------------------------------------
 BFGS: improving iteration         2 with bisection search (lambda=  0.500000)
--------------------------------------------------------------------------------
 
                           -------------------------------
                                      Unit Cell
                           -------------------------------
        Real Lattice(A)              Reciprocal Lattice(1/A)
   5.9900973  -3.4583843  -0.0000000        1.0489287  -0.0000000   0.0000000
   0.0000000   6.9167686   0.0000000        0.5244644   0.9083989  -0.0000000
   0.0000000   0.0000000  13.4903787        0.0000000  -0.0000000   0.4657531
 
                       Lattice parameters(A)       Cell Angles
                    a =    6.916769          alpha =   90.000000
                    b =    6.916769          beta  =   90.000000
                    c =   13.490379          gamma =  120.000000
 
                Current cell volume =  558.934955 A**3
 
                           -------------------------------
                                     Cell Contents
                           -------------------------------
 
            xxxxxxxxxxxxxxxxxxxxxxxxxxxxxxxxxxxxxxxxxxxxxxxxxxxxxxxxxxxx
            x  Element    Atom        Fractional coordinates of atoms  x
            x            Number           u          v          w      x
            x----------------------------------------------------------x
            x  Al           1         0.666667   0.333333  -0.500000   x
            x  Al           2        -0.666667  -0.333333   0.500000   x
            x  Si           1         0.000000   0.000000  -0.585408   x
            x  Si           2         0.000000   0.000000   0.585408   x
            x  Te           1         0.000000  -0.355710  -0.369002   x
            x  Te           2         0.355710   0.355710  -0.369002   x
            x  Te           3        -0.355710  -0.000000  -0.369002   x
            x  Te           4         0.355710  -0.000000   0.369002   x
            x  Te           5        -0.355710  -0.355710   0.369002   x
            x  Te           6         0.000000   0.355710   0.369002   x
            xxxxxxxxxxxxxxxxxxxxxxxxxxxxxxxxxxxxxxxxxxxxxxxxxxxxxxxxxxxx
 
 
------------------------------------------------------------------------ <-- SCF
SCF loop      Energy                           Energy gain       Timer   <-- SCF
                                               per atom          (sec)   <-- SCF
------------------------------------------------------------------------ <-- SCF
Initial  -4.26725373E+003                                         43.58  <-- SCF
      1  -4.26725253E+003                   -1.20202319E-004      43.66  <-- SCF
      2  -4.26725254E+003                    8.87939312E-007      43.83  <-- SCF
      3  -4.26725233E+003                   -2.11815049E-005      44.03  <-- SCF
      4  -4.26725229E+003                   -3.90168961E-006      44.22  <-- SCF
      5  -4.26725228E+003                   -4.04587192E-007      44.36  <-- SCF
      6  -4.26725227E+003                   -9.46887486E-007      44.52  <-- SCF
      7  -4.26725227E+003                   -2.53754078E-007      44.67  <-- SCF
      8  -4.26725227E+003                   -3.76953358E-007      44.84  <-- SCF
      9  -4.26725227E+003                    6.22495692E-007      44.98  <-- SCF
     10  -4.26725228E+003                    5.92652271E-007      45.14  <-- SCF
     11  -4.26725228E+003                    2.48400490E-007      45.30  <-- SCF
     12  -4.26725228E+003                    2.01194680E-007      45.47  <-- SCF
------------------------------------------------------------------------ <-- SCF
 
Final energy =  -4267.252284321     eV
(energy not corrected for finite basis set)
 
 
 *********************************** Forces ***********************************
 *                                                                            *
 *                        Cartesian components (eV/A)                         *
 * -------------------------------------------------------------------------- *
 *                   x                    y                    z              *
 *                                                                            *
 * Al        1     -0.00000              0.00000              0.00000         *
 * Al        2      0.00000              0.00000             -0.00000         *
 * Si        1      0.00000              0.00000              0.04662         *
 * Si        2     -0.00000             -0.00000             -0.04662         *
 * Te        1      0.00000             -0.03925              0.00880         *
 * Te        2      0.03399              0.01962              0.00880         *
 * Te        3     -0.03399              0.01962              0.00880         *
 * Te        4      0.03399             -0.01962             -0.00880         *
 * Te        5     -0.03399             -0.01962             -0.00880         *
 * Te        6     -0.00000              0.03925             -0.00880         *
 *                                                                            *
 ******************************************************************************
 
 ***************** Stress Tensor *****************
 *                                               *
 *          Cartesian components (GPa)           *
 * --------------------------------------------- *
 *             x             y             z     *
 *                                               *
 *  x      0.004281      0.000000      0.000000  *
 *  y      0.000000      0.004281     -0.000000  *
 *  z      0.000000     -0.000000     -0.010239  *
 *                                               *
 *  Pressure:    0.0006                          *
 *                                               *
 *************************************************
  
 +------------+-------------+-------------+-----------------+ <-- min BFGS
 |    Step    |   lambda    |   F.delta'  |    enthalpy     | <-- min BFGS
 +------------+-------------+-------------+-----------------+ <-- min BFGS
 |  previous  |    0.000000 |    0.007723 |    -4267.252559 | <-- min BFGS
 | trial step |    0.500000 |    0.004575 |    -4267.252284 | <-- min BFGS
 +------------+-------------+-------------+-----------------+ <-- min BFGS
  

--------------------------------------------------------------------------------
 BFGS: improving iteration         2 with bisection search (lambda=  0.250000)
--------------------------------------------------------------------------------
 
                           -------------------------------
                                      Unit Cell
                           -------------------------------
        Real Lattice(A)              Reciprocal Lattice(1/A)
   5.9896598  -3.4581317  -0.0000000        1.0490054  -0.0000000   0.0000000
   0.0000000   6.9162634   0.0000000        0.5245027   0.9084653  -0.0000000
   0.0000000   0.0000000  13.4899304       -0.0000000  -0.0000000   0.4657686
 
                       Lattice parameters(A)       Cell Angles
                    a =    6.916263          alpha =   90.000000
                    b =    6.916263          beta  =   90.000000
                    c =   13.489930          gamma =  120.000000
 
                Current cell volume =  558.834737 A**3
 
                           -------------------------------
                                     Cell Contents
                           -------------------------------
 
            xxxxxxxxxxxxxxxxxxxxxxxxxxxxxxxxxxxxxxxxxxxxxxxxxxxxxxxxxxxx
            x  Element    Atom        Fractional coordinates of atoms  x
            x            Number           u          v          w      x
            x----------------------------------------------------------x
            x  Al           1         0.666667   0.333333  -0.500000   x
            x  Al           2        -0.666667  -0.333333   0.500000   x
            x  Si           1         0.000000   0.000000  -0.585411   x
            x  Si           2         0.000000   0.000000   0.585411   x
            x  Te           1         0.000000  -0.355704  -0.369003   x
            x  Te           2         0.355704   0.355704  -0.369003   x
            x  Te           3        -0.355704  -0.000000  -0.369003   x
            x  Te           4         0.355704  -0.000000   0.369003   x
            x  Te           5        -0.355704  -0.355704   0.369003   x
            x  Te           6         0.000000   0.355704   0.369003   x
            xxxxxxxxxxxxxxxxxxxxxxxxxxxxxxxxxxxxxxxxxxxxxxxxxxxxxxxxxxxx
 
 
------------------------------------------------------------------------ <-- SCF
SCF loop      Energy                           Energy gain       Timer   <-- SCF
                                               per atom          (sec)   <-- SCF
------------------------------------------------------------------------ <-- SCF
Initial  -4.26725315E+003                                         46.38  <-- SCF
      1  -4.26725249E+003                   -6.64154060E-005      46.44  <-- SCF
      2  -4.26725249E+003                    1.52193901E-007      46.59  <-- SCF
      3  -4.26725244E+003                   -5.33745589E-006      46.78  <-- SCF
      4  -4.26725242E+003                   -1.07961521E-006      46.95  <-- SCF
      5  -4.26725242E+003                   -4.32374468E-008      47.11  <-- SCF
      6  -4.26725242E+003                   -3.22039516E-007      47.27  <-- SCF
------------------------------------------------------------------------ <-- SCF
 
Final energy =  -4267.252421279     eV
(energy not corrected for finite basis set)
 
 
 *********************************** Forces ***********************************
 *                                                                            *
 *                        Cartesian components (eV/A)                         *
 * -------------------------------------------------------------------------- *
 *                   x                    y                    z              *
 *                                                                            *
 * Al        1     -0.00000              0.00000              0.00000         *
 * Al        2      0.00000              0.00000             -0.00000         *
 * Si        1      0.00000              0.00000              0.04739         *
 * Si        2      0.00000             -0.00000             -0.04739         *
 * Te        1      0.00000             -0.04001              0.01013         *
 * Te        2      0.03465              0.02001              0.01013         *
 * Te        3     -0.03465              0.02001              0.01013         *
 * Te        4      0.03465             -0.02001             -0.01013         *
 * Te        5     -0.03465             -0.02001             -0.01013         *
 * Te        6      0.00000              0.04001             -0.01013         *
 *                                                                            *
 ******************************************************************************
 
 ***************** Stress Tensor *****************
 *                                               *
 *          Cartesian components (GPa)           *
 * --------------------------------------------- *
 *             x             y             z     *
 *                                               *
 *  x     -0.003753     -0.000000      0.000000  *
 *  y     -0.000000     -0.003753      0.000000  *
 *  z      0.000000      0.000000     -0.013861  *
 *                                               *
 *  Pressure:    0.0071                          *
 *                                               *
 *************************************************
  
 +------------+-------------+-------------+-----------------+ <-- min BFGS
 |    Step    |   lambda    |   F.delta'  |    enthalpy     | <-- min BFGS
 +------------+-------------+-------------+-----------------+ <-- min BFGS
 |  previous  |    0.000000 |    0.007723 |    -4267.252559 | <-- min BFGS
 | trial step |    0.250000 |    0.006220 |    -4267.252421 | <-- min BFGS
 +------------+-------------+-------------+-----------------+ <-- min BFGS
  

--------------------------------------------------------------------------------
 BFGS: improving iteration         2 with bisection search (lambda=  0.125000)
--------------------------------------------------------------------------------
 
                           -------------------------------
                                      Unit Cell
                           -------------------------------
        Real Lattice(A)              Reciprocal Lattice(1/A)
   5.9894411  -3.4580054  -0.0000000        1.0490437  -0.0000000   0.0000000
   0.0000000   6.9160109   0.0000000        0.5245218   0.9084985  -0.0000000
   0.0000000   0.0000000  13.4897062        0.0000000  -0.0000000   0.4657763
 
                       Lattice parameters(A)       Cell Angles
                    a =    6.916011          alpha =   90.000000
                    b =    6.916011          beta  =   90.000000
                    c =   13.489706          gamma =  120.000000
 
                Current cell volume =  558.784633 A**3
 
                           -------------------------------
                                     Cell Contents
                           -------------------------------
 
            xxxxxxxxxxxxxxxxxxxxxxxxxxxxxxxxxxxxxxxxxxxxxxxxxxxxxxxxxxxx
            x  Element    Atom        Fractional coordinates of atoms  x
            x            Number           u          v          w      x
            x----------------------------------------------------------x
            x  Al           1         0.666667   0.333333  -0.500000   x
            x  Al           2        -0.666667  -0.333333   0.500000   x
            x  Si           1         0.000000   0.000000  -0.585412   x
            x  Si           2         0.000000   0.000000   0.585412   x
            x  Te           1         0.000000  -0.355701  -0.369004   x
            x  Te           2         0.355701   0.355701  -0.369004   x
            x  Te           3        -0.355701  -0.000000  -0.369004   x
            x  Te           4         0.355701  -0.000000   0.369004   x
            x  Te           5        -0.355701  -0.355701   0.369004   x
            x  Te           6         0.000000   0.355701   0.369004   x
            xxxxxxxxxxxxxxxxxxxxxxxxxxxxxxxxxxxxxxxxxxxxxxxxxxxxxxxxxxxx
 
 
------------------------------------------------------------------------ <-- SCF
SCF loop      Energy                           Energy gain       Timer   <-- SCF
                                               per atom          (sec)   <-- SCF
------------------------------------------------------------------------ <-- SCF
Initial  -4.26725286E+003                                         48.16  <-- SCF
      1  -4.26725251E+003                   -3.48975122E-005      48.22  <-- SCF
      2  -4.26725251E+003                    5.98917923E-008      48.38  <-- SCF
      3  -4.26725249E+003                   -1.30054103E-006      48.53  <-- SCF
      4  -4.26725249E+003                   -2.19649178E-007      48.69  <-- SCF
      5  -4.26725249E+003                    3.76005640E-008      48.84  <-- SCF
------------------------------------------------------------------------ <-- SCF
 
Final energy =  -4267.252492548     eV
(energy not corrected for finite basis set)
 
 
 *********************************** Forces ***********************************
 *                                                                            *
 *                        Cartesian components (eV/A)                         *
 * -------------------------------------------------------------------------- *
 *                   x                    y                    z              *
 *                                                                            *
 * Al        1      0.00000              0.00000             -0.00000         *
 * Al        2     -0.00000              0.00000              0.00000         *
 * Si        1     -0.00000              0.00000              0.04882         *
 * Si        2      0.00000             -0.00000             -0.04882         *
 * Te        1      0.00000             -0.04077              0.01163         *
 * Te        2      0.03531              0.02038              0.01163         *
 * Te        3     -0.03531              0.02038              0.01163         *
 * Te        4      0.03531             -0.02038             -0.01163         *
 * Te        5     -0.03531             -0.02038             -0.01163         *
 * Te        6      0.00000              0.04077             -0.01163         *
 *                                                                            *
 ******************************************************************************
 
 ***************** Stress Tensor *****************
 *                                               *
 *          Cartesian components (GPa)           *
 * --------------------------------------------- *
 *             x             y             z     *
 *                                               *
 *  x     -0.007371      0.000000      0.000000  *
 *  y      0.000000     -0.007371      0.000000  *
 *  z      0.000000      0.000000     -0.014356  *
 *                                               *
 *  Pressure:    0.0097                          *
 *                                               *
 *************************************************
  
 +------------+-------------+-------------+-----------------+ <-- min BFGS
 |    Step    |   lambda    |   F.delta'  |    enthalpy     | <-- min BFGS
 +------------+-------------+-------------+-----------------+ <-- min BFGS
 |  previous  |    0.000000 |    0.007723 |    -4267.252559 | <-- min BFGS
 | trial step |    0.125000 |    0.007022 |    -4267.252493 | <-- min BFGS
 +------------+-------------+-------------+-----------------+ <-- min BFGS
  

--------------------------------------------------------------------------------
 BFGS: improving iteration         2 with bisection search (lambda=  0.062500)
--------------------------------------------------------------------------------
 
                           -------------------------------
                                      Unit Cell
                           -------------------------------
        Real Lattice(A)              Reciprocal Lattice(1/A)
   5.9893317  -3.4579423  -0.0000000        1.0490628  -0.0000000   0.0000000
   0.0000000   6.9158846   0.0000000        0.5245314   0.9085151  -0.0000000
   0.0000000   0.0000000  13.4895941       -0.0000000  -0.0000000   0.4657802
 
                       Lattice parameters(A)       Cell Angles
                    a =    6.915885          alpha =   90.000000
                    b =    6.915885          beta  =   90.000000
                    c =   13.489594          gamma =  120.000000
 
                Current cell volume =  558.759582 A**3
 
                           -------------------------------
                                     Cell Contents
                           -------------------------------
 
            xxxxxxxxxxxxxxxxxxxxxxxxxxxxxxxxxxxxxxxxxxxxxxxxxxxxxxxxxxxx
            x  Element    Atom        Fractional coordinates of atoms  x
            x            Number           u          v          w      x
            x----------------------------------------------------------x
            x  Al           1         0.666667   0.333333  -0.500000   x
            x  Al           2        -0.666667  -0.333333   0.500000   x
            x  Si           1         0.000000   0.000000  -0.585413   x
            x  Si           2         0.000000   0.000000   0.585413   x
            x  Te           1         0.000000  -0.355699  -0.369005   x
            x  Te           2         0.355699   0.355699  -0.369005   x
            x  Te           3        -0.355699  -0.000000  -0.369005   x
            x  Te           4         0.355699  -0.000000   0.369005   x
            x  Te           5        -0.355699  -0.355699   0.369005   x
            x  Te           6         0.000000   0.355699   0.369005   x
            xxxxxxxxxxxxxxxxxxxxxxxxxxxxxxxxxxxxxxxxxxxxxxxxxxxxxxxxxxxx
 
 
------------------------------------------------------------------------ <-- SCF
SCF loop      Energy                           Energy gain       Timer   <-- SCF
                                               per atom          (sec)   <-- SCF
------------------------------------------------------------------------ <-- SCF
Initial  -4.26725271E+003                                         49.72  <-- SCF
      1  -4.26725253E+003                   -1.74012875E-005      49.78  <-- SCF
      2  -4.26725253E+003                    6.54713665E-008      49.94  <-- SCF
      3  -4.26725253E+003                   -4.86149873E-007      50.09  <-- SCF
      4  -4.26725253E+003                   -1.03535116E-007      50.28  <-- SCF
      5  -4.26725253E+003                   -1.51462270E-008      50.45  <-- SCF
------------------------------------------------------------------------ <-- SCF
 
Final energy =  -4267.252526136     eV
(energy not corrected for finite basis set)
 
 
 *********************************** Forces ***********************************
 *                                                                            *
 *                        Cartesian components (eV/A)                         *
 * -------------------------------------------------------------------------- *
 *                   x                    y                    z              *
 *                                                                            *
 * Al        1      0.00000              0.00000             -0.00000         *
 * Al        2     -0.00000             -0.00000              0.00000         *
 * Si        1      0.00000             -0.00000              0.04926         *
 * Si        2     -0.00000              0.00000             -0.04926         *
 * Te        1     -0.00000             -0.04081              0.01176         *
 * Te        2      0.03534              0.02041              0.01176         *
 * Te        3     -0.03534              0.02041              0.01176         *
 * Te        4      0.03534             -0.02041             -0.01176         *
 * Te        5     -0.03534             -0.02041             -0.01176         *
 * Te        6      0.00000              0.04081             -0.01176         *
 *                                                                            *
 ******************************************************************************
 
 ***************** Stress Tensor *****************
 *                                               *
 *          Cartesian components (GPa)           *
 * --------------------------------------------- *
 *             x             y             z     *
 *                                               *
 *  x     -0.009322      0.000000      0.000000  *
 *  y      0.000000     -0.009322     -0.000000  *
 *  z      0.000000     -0.000000     -0.015464  *
 *                                               *
 *  Pressure:    0.0114                          *
 *                                               *
 *************************************************
  
 +------------+-------------+-------------+-----------------+ <-- min BFGS
 |    Step    |   lambda    |   F.delta'  |    enthalpy     | <-- min BFGS
 +------------+-------------+-------------+-----------------+ <-- min BFGS
 |  previous  |    0.000000 |    0.007723 |    -4267.252559 | <-- min BFGS
 | trial step |    0.062500 |    0.007416 |    -4267.252526 | <-- min BFGS
 +------------+-------------+-------------+-----------------+ <-- min BFGS
  

[...]
                           -------------------------------
        Real Lattice(A)              Reciprocal Lattice(1/A)
   5.9852507  -3.4555861   0.0000000        1.0497781  -0.0000000  -0.0000000
   0.0000000   6.9111722  -0.0000000        0.5248891   0.9091345   0.0000000
   0.0000000  -0.0000000  13.5021104       -0.0000000   0.0000000   0.4653484
 
                       Lattice parameters(A)       Cell Angles
                    a =    6.911172          alpha =   90.000000
                    b =    6.911172          beta  =   90.000000
                    c =   13.502110          gamma =  120.000000
 
                Current cell volume =  558.516116 A**3
 
                           -------------------------------
                                     Cell Contents
                           -------------------------------
 
            xxxxxxxxxxxxxxxxxxxxxxxxxxxxxxxxxxxxxxxxxxxxxxxxxxxxxxxxxxxx
            x  Element    Atom        Fractional coordinates of atoms  x
            x            Number           u          v          w      x
            x----------------------------------------------------------x
            x  Al           1         0.666667   0.333333  -0.500000   x
            x  Al           2        -0.666667  -0.333333   0.500000   x
            x  Si           1        -0.000000   0.000000  -0.585229   x
            x  Si           2         0.000000   0.000000   0.585229   x
            x  Te           1         0.000000  -0.356253  -0.368998   x
            x  Te           2         0.356253   0.356253  -0.368998   x
            x  Te           3        -0.356253  -0.000000  -0.368998   x
            x  Te           4         0.356253  -0.000000   0.368998   x
            x  Te           5        -0.356253  -0.356253   0.368998   x
            x  Te           6         0.000000   0.356253   0.368998   x
            xxxxxxxxxxxxxxxxxxxxxxxxxxxxxxxxxxxxxxxxxxxxxxxxxxxxxxxxxxxx
 
 
------------------------------------------------------------------------ <-- SCF
SCF loop      Energy                           Energy gain       Timer   <-- SCF
                                               per atom          (sec)   <-- SCF
------------------------------------------------------------------------ <-- SCF
Initial  -4.26720875E+003                                        335.44  <-- SCF
      1  -4.26725492E+003                    4.61667982E-003     335.52  <-- SCF
      2  -4.26725497E+003                    4.83945252E-006     335.70  <-- SCF
      3  -4.26725390E+003                   -1.06922054E-004     335.92  <-- SCF
      4  -4.26725361E+003                   -2.89676960E-005     336.12  <-- SCF
      5  -4.26725354E+003                   -6.85166970E-006     336.31  <-- SCF
      6  -4.26725349E+003                   -4.60512556E-006     336.47  <-- SCF
      7  -4.26725348E+003                   -1.43155082E-006     336.64  <-- SCF
      8  -4.26725347E+003                   -5.68258184E-007     336.78  <-- SCF
      9  -4.26725354E+003                    6.12455583E-006     336.95  <-- SCF
     10  -4.26725355E+003                    1.53288130E-006     337.11  <-- SCF
     11  -4.26725357E+003                    1.86331299E-006     337.28  <-- SCF
     12  -4.26725358E+003                    7.16439716E-007     337.44  <-- SCF
     13  -4.26725358E+003                    2.85793088E-008     337.61  <-- SCF
     14  -4.26725358E+003                    2.61868142E-008     337.81  <-- SCF
------------------------------------------------------------------------ <-- SCF
 
Final energy =  -4267.253577782     eV
(energy not corrected for finite basis set)
 
 
 *********************************** Forces ***********************************
 *                                                                            *
 *                        Cartesian components (eV/A)                         *
 * -------------------------------------------------------------------------- *
 *                   x                    y                    z              *
 *                                                                            *
 * Al        1      0.00000             -0.00000              0.00000         *
 * Al        2     -0.00000              0.00000             -0.00000         *
 * Si        1      0.00000              0.00000             -0.00282         *
 * Si        2     -0.00000             -0.00000              0.00282         *
 * Te        1      0.00000             -0.00558             -0.00045         *
 * Te        2      0.00483              0.00279             -0.00045         *
 * Te        3     -0.00483              0.00279             -0.00045         *
 * Te        4      0.00483             -0.00279              0.00045         *
 * Te        5     -0.00483             -0.00279              0.00045         *
 * Te        6      0.00000              0.00558              0.00045         *
 *                                                                            *
 ******************************************************************************
 
 ***************** Stress Tensor *****************
 *                                               *
 *          Cartesian components (GPa)           *
 * --------------------------------------------- *
 *             x             y             z     *
 *                                               *
 *  x     -0.007277      0.000000      0.000000  *
 *  y      0.000000     -0.007277     -0.000000  *
 *  z      0.000000     -0.000000     -0.011524  *
 *                                               *
 *  Pressure:    0.0087                          *
 *                                               *
 *************************************************
  
 +------------+-------------+-------------+-----------------+ <-- min BFGS
 |    Step    |   lambda    |   F.delta'  |    enthalpy     | <-- min BFGS
 +------------+-------------+-------------+-----------------+ <-- min BFGS
 |  previous  |    0.000000 |    0.004178 |    -4267.253254 | <-- min BFGS
 | trial step |    1.000000 |    0.000311 |    -4267.253578 | <-- min BFGS
 +------------+-------------+-------------+-----------------+ <-- min BFGS
  
 BFGS: finished iteration    28 with enthalpy= -4.26725358E+003 eV
  
 +-----------+-----------------+-----------------+------------+-----+ <-- BFGS
 | Parameter |      value      |    tolerance    |    units   | OK? | <-- BFGS
 +-----------+-----------------+-----------------+------------+-----+ <-- BFGS
 |  dE/ion   |   3.235012E-005 |   5.000000E-006 |         eV | No  | <-- BFGS
 |  |F|max   |   5.597112E-003 |   1.000000E-002 |       eV/A | Yes | <-- BFGS
 |  |dR|max  |   6.765164E-004 |   5.000000E-004 |          A | No  | <-- BFGS
 |   Smax    |   1.152402E-002 |   2.000000E-002 |        GPa | Yes | <-- BFGS
 +-----------+-----------------+-----------------+------------+-----+ <-- BFGS
  

================================================================================
 Starting BFGS iteration         29 ...
================================================================================
 BFGS: forbidding uphill steps from now on
  
 +------------+-------------+-------------+-----------------+ <-- min BFGS
 |    Step    |   lambda    |   F.delta'  |    enthalpy     | <-- min BFGS
 +------------+-------------+-------------+-----------------+ <-- min BFGS
 |  previous  |    0.000000 |    0.001500 |    -4267.253578 | <-- min BFGS
 +------------+-------------+-------------+-----------------+ <-- min BFGS
  

--------------------------------------------------------------------------------
 BFGS: starting iteration        29 with trial guess (lambda=  1.000000)
--------------------------------------------------------------------------------
 
                           -------------------------------
                                      Unit Cell
                           -------------------------------
        Real Lattice(A)              Reciprocal Lattice(1/A)
   5.9853430  -3.4556394   0.0000000        1.0497619  -0.0000000  -0.0000000
   0.0000000   6.9112788  -0.0000000        0.5248810   0.9091205   0.0000000
   0.0000000  -0.0000000  13.5017504       -0.0000000   0.0000000   0.4653608
 
                       Lattice parameters(A)       Cell Angles
                    a =    6.911279          alpha =   90.000000
                    b =    6.911279          beta  =   90.000000
                    c =   13.501750          gamma =  120.000000
 
                Current cell volume =  558.518457 A**3
 
                           -------------------------------
                                     Cell Contents
                           -------------------------------
 
            xxxxxxxxxxxxxxxxxxxxxxxxxxxxxxxxxxxxxxxxxxxxxxxxxxxxxxxxxxxx
            x  Element    Atom        Fractional coordinates of atoms  x
            x            Number           u          v          w      x
            x----------------------------------------------------------x
            x  Al           1         0.666667   0.333333  -0.500000   x
            x  Al           2        -0.666667  -0.333333   0.500000   x
            x  Si           1        -0.000000   0.000000  -0.585235   x
            x  Si           2         0.000000   0.000000   0.585235   x
            x  Te           1         0.000000  -0.356259  -0.369000   x
            x  Te           2         0.356259   0.356259  -0.369000   x
            x  Te           3        -0.356259  -0.000000  -0.369000   x
            x  Te           4         0.356259  -0.000000   0.369000   x
            x  Te           5        -0.356259  -0.356259   0.369000   x
            x  Te           6         0.000000   0.356259   0.369000   x
            xxxxxxxxxxxxxxxxxxxxxxxxxxxxxxxxxxxxxxxxxxxxxxxxxxxxxxxxxxxx
 
 
------------------------------------------------------------------------ <-- SCF
SCF loop      Energy                           Energy gain       Timer   <-- SCF
                                               per atom          (sec)   <-- SCF
------------------------------------------------------------------------ <-- SCF
Initial  -4.26724660E+003                                        338.92  <-- SCF
      1  -4.26725359E+003                    6.99051779E-004     339.06  <-- SCF
      2  -4.26725359E+003                    5.96349481E-008     339.28  <-- SCF
      3  -4.26725358E+003                   -1.37494162E-006     339.44  <-- SCF
      4  -4.26725358E+003                   -4.78772776E-007     339.62  <-- SCF
      5  -4.26725358E+003                   -4.29518324E-008     339.80  <-- SCF
      6  -4.26725357E+003                   -1.18884437E-007     339.97  <-- SCF
------------------------------------------------------------------------ <-- SCF
 
Final energy =  -4267.253574077     eV
(energy not corrected for finite basis set)
 
 
 *********************************** Forces ***********************************
 *                                                                            *
 *                        Cartesian components (eV/A)                         *
 * -------------------------------------------------------------------------- *
 *                   x                    y                    z              *
 *                                                                            *
 * Al        1     -0.00000             -0.00000             -0.00000         *
 * Al        2      0.00000              0.00000              0.00000         *
 * Si        1     -0.00000              0.00000             -0.00243         *
 * Si        2      0.00000             -0.00000              0.00243         *
 * Te        1     -0.00000             -0.00510             -0.00089         *
 * Te        2      0.00442              0.00255             -0.00089         *
 * Te        3     -0.00442              0.00255             -0.00089         *
 * Te        4      0.00442             -0.00255              0.00089         *
 * Te        5     -0.00442             -0.00255              0.00089         *
 * Te        6      0.00000              0.00510              0.00089         *
 *                                                                            *
 ******************************************************************************
 
 ***************** Stress Tensor *****************
 *                                               *
 *          Cartesian components (GPa)           *
 * --------------------------------------------- *
 *             x             y             z     *
 *                                               *
 *  x     -0.010873      0.000000      0.000000  *
 *  y      0.000000     -0.010873      0.000000  *
 *  z      0.000000      0.000000     -0.016771  *
 *                                               *
 *  Pressure:    0.0128                          *
 *                                               *
 *************************************************
  
 +------------+-------------+-------------+-----------------+ <-- min BFGS
 |    Step    |   lambda    |   F.delta'  |    enthalpy     | <-- min BFGS
 +------------+-------------+-------------+-----------------+ <-- min BFGS
 |  previous  |    0.000000 |    0.001500 |    -4267.253578 | <-- min BFGS
 | trial step |    1.000000 |    0.001304 |    -4267.253574 | <-- min BFGS
 +------------+-------------+-------------+-----------------+ <-- min BFGS
  
 BFGS: finished iteration    29 with enthalpy= -4.26725357E+003 eV
  
 +-----------+-----------------+-----------------+------------+-----+ <-- BFGS
 | Parameter |      value      |    tolerance    |    units   | OK? | <-- BFGS
 +-----------+-----------------+-----------------+------------+-----+ <-- BFGS
 |  dE/ion   |   3.705460E-007 |   5.000000E-006 |         eV | Yes | <-- BFGS
 |  |F|max   |   5.180529E-003 |   1.000000E-002 |       eV/A | Yes | <-- BFGS
 |  |dR|max  |   8.666415E-005 |   5.000000E-004 |          A | Yes | <-- BFGS
 |   Smax    |   1.677066E-002 |   2.000000E-002 |        GPa | Yes | <-- BFGS
 +-----------+-----------------+-----------------+------------+-----+ <-- BFGS
  
 BFGS: Geometry optimization completed successfully.

================================================================================
 BFGS: Final Configuration:
================================================================================
 
                           -------------------------------
                                      Unit Cell
                           -------------------------------
        Real Lattice(A)              Reciprocal Lattice(1/A)
   5.9853430  -3.4556394   0.0000000        1.0497619  -0.0000000  -0.0000000
   0.0000000   6.9112788  -0.0000000        0.5248810   0.9091205   0.0000000
   0.0000000  -0.0000000  13.5017504       -0.0000000   0.0000000   0.4653608
 
                       Lattice parameters(A)       Cell Angles
                    a =    6.911279          alpha =   90.000000
                    b =    6.911279          beta  =   90.000000
                    c =   13.501750          gamma =  120.000000
 
                Current cell volume =  558.518457 A**3
 
                           -------------------------------
                                     Cell Contents
                           -------------------------------
 
            xxxxxxxxxxxxxxxxxxxxxxxxxxxxxxxxxxxxxxxxxxxxxxxxxxxxxxxxxxxx
            x  Element    Atom        Fractional coordinates of atoms  x
            x            Number           u          v          w      x
            x----------------------------------------------------------x
            x  Al           1         0.666667   0.333333  -0.500000   x
            x  Al           2        -0.666667  -0.333333   0.500000   x
            x  Si           1        -0.000000   0.000000  -0.585235   x
            x  Si           2         0.000000   0.000000   0.585235   x
            x  Te           1         0.000000  -0.356259  -0.369000   x
            x  Te           2         0.356259   0.356259  -0.369000   x
            x  Te           3        -0.356259  -0.000000  -0.369000   x
            x  Te           4         0.356259  -0.000000   0.369000   x
            x  Te           5        -0.356259  -0.356259   0.369000   x
            x  Te           6         0.000000   0.356259   0.369000   x
            xxxxxxxxxxxxxxxxxxxxxxxxxxxxxxxxxxxxxxxxxxxxxxxxxxxxxxxxxxxx
 
 
 BFGS: Final Enthalpy     = -4.26725357E+003 eV
 BFGS: Final <frequency>  =    4400.19707 cm-1
 BFGS: Final bulk modulus =     275.74149 GPa
  
  **********************************************************
  *** There were at least    15 warnings during this run ***
  *** => please check the whole of this file carefully!  ***
  **********************************************************
 
 ***************************** Symmetrised Forces *****************************
 *                                                                            *
 *                        Cartesian components (eV/A)                         *
 * -------------------------------------------------------------------------- *
 *                   x                    y                    z              *
 *                                                                            *
 * Al        1     -0.00000             -0.00000             -0.00000         *
 * Al        2      0.00000              0.00000              0.00000         *
 * Si        1     -0.00000              0.00000             -0.00243         *
 * Si        2      0.00000             -0.00000              0.00243         *
 * Te        1     -0.00000             -0.00510             -0.00089         *
 * Te        2      0.00442              0.00255             -0.00089         *
 * Te        3     -0.00442              0.00255             -0.00089         *
 * Te        4      0.00442             -0.00255              0.00089         *
 * Te        5     -0.00442             -0.00255              0.00089         *
 * Te        6      0.00000              0.00510              0.00089         *
 *                                                                            *
 ******************************************************************************
 
 *********** Symmetrised Stress Tensor ***********
 *                                               *
 *          Cartesian components (GPa)           *
 * --------------------------------------------- *
 *             x             y             z     *
 *                                               *
 *  x     -0.010873      0.000000      0.000000  *
 *  y      0.000000     -0.010873      0.000000  *
 *  z      0.000000      0.000000     -0.016771  *
 *                                               *
 *  Pressure:    0.0128                          *
 *                                               *
 *************************************************

Writing analysis data to AlSiTe3__0_0_1_.castep_bin

Writing model to AlSiTe3__0_0_1_.check
 
 A BibTeX formatted list of references used in this run has been written to 
 AlSiTe3__0_0_1_.bib
 
Initialisation time =     26.86 s
Calculation time    =    314.06 s
Finalisation time   =      0.33 s
Total time          =    341.25 s
  
Overall parallel efficiency rating: Terrible (29%)                              
  
Data was distributed by:-
G-vector (24-way); efficiency rating: Poor (40%)                                
k-point (2-way); efficiency rating: Mediocre (53%)                              
  
Parallel notes:
1) Calculation only took 341.1 s, so efficiency estimates may be inaccurate.    
