 Job started on host DESKTOP-1C867QN
 at Mon Jun  2 19:07:48 2025

 +-------------------------------------------------+
 |                                                 |
 |      CCC   AA    SSS  TTTTT  EEEEE  PPPP        |
 |     C     A  A  S       T    E      P   P       |
 |     C     AAAA   SS     T    EEE    PPPP        |
 |     C     A  A     S    T    E      P           |
 |      CCC  A  A  SSS     T    EEEEE  P           |
 |                                                 |
 +-------------------------------------------------+
 |                                                 |
 | Materials Studio CASTEP version 2017            |
 | Ab Initio Total Energy Program                  |
 |                                                 |
 | Authors:                                        |
 | M. Segall, M. Probert, C. Pickard, P. Hasnip,   |
 | S. Clark, K. Refson, J. R. Yates, M. Payne      |
 |                                                 |
 | Contributors:                                   |
 | P. Lindan, P. Haynes, J. White, V. Milman,      |
 | N. Govind, M. Gibson, P. Tulip, V. Cocula,      |
 | B. Montanari, D. Quigley, M. Glover,            |
 | L. Bernasconi, A. Perlov, M. Plummer,           |
 | E. McNellis, J. Meyer, J. Gale, D. Jochym       |
 | J. Aarons, B. Walker, R. Gillen, D. Jones       |
 | T. Green, I. J. Bush, C. J. Armstrong,          |
 | E. J. Higgins, E. L. Brown, M. S. McFly         |
 |                                                 |
 | Copyright (c) 2000 - 2016                       |
 |                                                 |
 | Please cite                                     |
 |                                                 |
 |     "First principles methods using CASTEP"     |
 |                                                 |
 |         Zeitschrift fuer Kristallographie       |
 |           220(5-6) pp. 567-570 (2005)           |
 |                                                 |
 | S. J. Clark, M. D. Segall, C. J. Pickard,       |
 | P. J. Hasnip, M. J. Probert, K. Refson,         |
 | M. C. Payne                                     |
 |                                                 |
 |       in all publications arising from          |
 |              your use of CASTEP                 |
 |                                                 |
 +-------------------------------------------------+
 
 
 This version was compiled for x86_64-windows-msvc2008 on May 05 2016
 Intel(R) Math Kernel Library Version 11.1.2 
 Fundamental constants values: CODATA 2010
 
License checkout of MS_castep successful
 
Reading continuation data from model file AlSiTe3__0_0_1__DOS.check
 
 Pseudo atomic calculation performed for H 1s1
 
 Converged in 13 iterations to a total energy of -12.4688 eV
 
 
 Pseudo atomic calculation performed for O 2s2 2p4
 
 Converged in 22 iterations to a total energy of -423.8174 eV
 
 
 Pseudo atomic calculation performed for Al 3s2 3p1
 
 Converged in 15 iterations to a total energy of -53.6182 eV
 
 
 Pseudo atomic calculation performed for Si 3s2 3p2
 
 Converged in 15 iterations to a total energy of -101.6421 eV
 
 
 Pseudo atomic calculation performed for Te 5s2 5p4
 
 Converged in 16 iterations to a total energy of -217.5984 eV
 
Initialising basis set for model.
Reinitialising basis set for current geometry.
Continuing from previous run with ground state wavefunction.
Continuing from previous run with ground state density.
 Info: PDOS_CALCULATE_WEIGHTS modified from F to T
 Calculation parallelised over 48 processes.
 Data is distributed by G-vector(24-way) and k-point(2-way)

 ************************************ Title ************************************
 CASTEP calculation from Materials Studio

 ***************************** General Parameters ******************************
  
 output verbosity                               : normal  (1)
 continuing from                                : AlSiTe3__0_0_1__DOS.check
 write checkpoint data to                       : AlSiTe3__0_0_1__DOS.check
 type of calculation                            : Electronic Spectroscopy
 stress calculation                             : off
 density difference calculation                 : off
 electron localisation func (ELF) calculation   : off
 Hirshfeld analysis                             : off
 unlimited duration calculation
 timing information                             : on
 memory usage estimate                          : on
 write final potential to formatted file        : off
 write final density to formatted file          : off
 write BibTeX reference list                    : on
 write OTFG pseudopotential files               : on
 checkpoint writing                             : both castep_bin and check files
  
 output         length unit                     : A
 output           mass unit                     : amu
 output           time unit                     : ps
 output         charge unit                     : e
 output           spin unit                     : hbar/2
 output         energy unit                     : eV
 output          force unit                     : eV/A
 output       velocity unit                     : A/ps
 output       pressure unit                     : GPa
 output     inv_length unit                     : 1/A
 output      frequency unit                     : cm-1
 output force constant unit                     : eV/A**2
 output         volume unit                     : A**3
 output   IR intensity unit                     : (D/A)**2/amu
 output         dipole unit                     : D
 output         efield unit                     : eV/A/e
 output        entropy unit                     : J/mol/K
  
 wavefunctions paging                           : none
 random number generator seed                   :  172651140
 data distribution                              : optimal for this architecture
 optimization strategy                          : maximize speed(+++)

 *********************** Exchange-Correlation Parameters ***********************
  
 using functional                               : Perdew Burke Ernzerhof
 relativistic treatment                         : Koelling-Harmon
 DFT+D: Semi-empirical dispersion correction    : off

 ************************* Pseudopotential Parameters **************************
  
 pseudopotential representation                 : reciprocal space
 <beta|phi> representation                      : reciprocal space
 spin-orbit coupling                            : off

 **************************** Basis Set Parameters *****************************
  
 plane wave basis set cut-off                   :   600.0000   eV
 size of standard grid                          :     1.5000
 size of   fine   gmax                          :    18.8237   1/A
 largest prime factor in FFT                    :          5
 finite basis set correction                    : none

 **************************** Electronic Parameters ****************************
  
 number of  electrons                           :  78.00    
 net charge of system                           :  0.000    
 treating system as non-spin-polarized
 number of bands                                :         47

 ********************* Electronic Minimization Parameters **********************
  
 Method: Treating system as metallic with density mixing treatment of electrons,
         and number of  SD  steps               :          1
         and number of  CG  steps               :          4
  
 total energy / atom convergence tol.           : 0.2000E-05   eV
 eigen-energy convergence tolerance             : 0.7660E-06   eV
 max force / atom convergence tol.              : ignored
 convergence tolerance window                   :          3   cycles
 max. number of SCF cycles                      :       9999
 number of fixed-spin iterations                :         10
 smearing scheme                                : Gaussian
 smearing width                                 : 0.1000       eV
 Fermi energy convergence tolerance             : 0.2721E-13   eV
 periodic dipole correction                     : NONE

 ************************** Density Mixing Parameters **************************
  
 density-mixing scheme                          : Pulay
 max. length of mixing history                  :         20
 charge density mixing amplitude                : 0.5000    
 cut-off energy for mixing                      :  600.0       eV
 charge density mixing g-vector                 :  1.500       1/A

 *********************** Population Analysis Parameters ************************
  
 Partial DOS weights calculated

 ********************* Electronic Spectroscopy Parameters **********************
  
 electronic spectroscopy with theory level      : DFT       
 spectroscopy calculation                       : band structure
 max. number of iterations                      :         60
 max. steps per iteration                       :          5
 number of bands / k-point                      :        130
 band convergence tolerance                     : 0.1000E-04   eV
 write orbitals file                            : on

 *******************************************************************************
  
 
                           -------------------------------
                                      Unit Cell
                           -------------------------------
        Real Lattice(A)                      Reciprocal Lattice(1/A)
   5.9866628  -3.4564014   0.0000000        1.0495305   0.0000000   0.0000000
   0.0000000   6.9128027   0.0000000        0.5247653   0.9089201   0.0000000
   0.0000000   0.0000000  13.5676159        0.0000000   0.0000000   0.4631017
 
                       Lattice parameters(A)       Cell Angles
                    a =    6.912803          alpha =   90.000000
                    b =    6.912803          beta  =   90.000000
                    c =   13.567616          gamma =  120.000000
 
                       Current cell volume =  561.490612       A**3
 
                           -------------------------------
                                     Cell Contents
                           -------------------------------
                         Total number of ions in cell =   18
                      Total number of species in cell =    5
                        Max number of any one species =    6
 
            xxxxxxxxxxxxxxxxxxxxxxxxxxxxxxxxxxxxxxxxxxxxxxxxxxxxxxxxxxxx
            x  Element    Atom        Fractional coordinates of atoms  x
            x            Number           u          v          w      x
            x----------------------------------------------------------x
            x  H            1        -0.011847   0.894044   0.428213   x 
            x  H            2        -0.124168   0.487255   0.472125   x 
            x  H            3         0.339500   0.859066   0.380714   x 
            x  H            4         1.641412   1.283208   0.483248   x 
            x  O            1         0.485971   1.013875   0.373688   x 
            x  O            2         0.108118   0.650577   0.376426   x 
            x  O            3         0.733128   0.436284   0.505608   x 
            x  O            4        -0.029058   1.010733   0.395677   x 
            x  Al           1         0.617456   0.349665   0.126787   x 
            x  Al           2         0.314441   0.677932   0.124010   x 
            x  Si           1        -0.018267   0.033633   0.090071   x 
            x  Si           2         0.006981   0.039731   0.274334   x 
            x  Te           1         0.007402  -0.331893   0.251507   x 
            x  Te           2         0.368180   0.410125   0.264530   x 
            x  Te           3        -0.371864   0.030012   0.251245   x 
            x  Te           4        -0.351624  -0.306016   0.010324   x 
            x  Te           5        -0.032085   0.364714   0.013186   x 
            x  Te           6         0.313680   0.027148   0.010024   x 
            xxxxxxxxxxxxxxxxxxxxxxxxxxxxxxxxxxxxxxxxxxxxxxxxxxxxxxxxxxxx
 
 
                         No user defined ionic velocities
 
                           -------------------------------
                                   Details of Species
                           -------------------------------
 
                               Mass of species in AMU
                                    H    1.0080000
                                    O   15.9989996
                                    Al   26.9820004
                                    Si   28.0849991
                                    Te  127.5999985
 
                          Electric Quadrupole Moment (Barn)
                                    H    0.0028600 Isotope  2
                                    O   -0.0255800 Isotope 17
                                    Al    0.1466000 Isotope 27
                                    Si    1.0000000 No Isotope Defined
                                    Te    1.0000000 No Isotope Defined
 
                          Files used for pseudopotentials:
                                    H H_00PBE_OP.recpot
                                    O O_00PBE_OP.recpot
                                    Al Al_00.recpot
                                    Si Si_00PBE_OP.recpot
                                    Te Te_00.recpot
 
                           -------------------------------
                              k-Points For BZ Sampling
                           -------------------------------
                       MP grid size for SCF calculation is  2  2  1
                            with an offset of   0.000  0.000  0.000
                       Number of kpoints used =             2
 
                           -------------------------------
                               Symmetry and Constraints
                           -------------------------------
 
                      Maximum deviation from symmetry =  0.00000         ANG
 
         There are no symmetry operations specified or generated for this cell
         There are no ionic constraints specified or generated for this cell
                      Point group of crystal =     1: C1, 1, 1
                      Space group of crystal =     1: P1, P 1
 
 
                         Centre of mass is NOT constrained
 
                         Number of cell constraints= 0
                         Cell constraints are:  1 2 3 4 5 6
 
                         External pressure/stress (GPa)
                          0.00000   0.00000   0.00000
                                    0.00000   0.00000
                                              0.00000
 
+---------------- MEMORY AND SCRATCH DISK ESTIMATES PER PROCESS --------------+
|                                                     Memory          Disk    |
|                                               ----------------------------- |
| Approx. total storage required per process           26.3 MB         0.0 MB |
|                                                                             |
| Requirements will fluctuate during execution and may exceed these estimates |
+-----------------------------------------------------------------------------+
 
  =====================================================================
  +                                                                   +
  +                 Calculation of Spectral Properties                +
  +                                                                   +
  + Calculation re-parallelised over 48 processes.                    +
  + Data distributed by G-vector(48-way), k-point(1-way), band(1-way) +
  + Data distributed by G-vector(48-way)                              +
  +                                                                   +
  =====================================================================
 
 Pseudo atomic calculation performed for H 1s1
 
 Converged in 13 iterations to a total energy of -12.4688 eV
 
 
 Pseudo atomic calculation performed for O 2s2 2p4
 
 Converged in 22 iterations to a total energy of -423.8174 eV
 
 
 Pseudo atomic calculation performed for Al 3s2 3p1
 
 Converged in 15 iterations to a total energy of -53.6182 eV
 
 
 Pseudo atomic calculation performed for Si 3s2 3p2
 
 Converged in 15 iterations to a total energy of -101.6421 eV
 
 
 Pseudo atomic calculation performed for Te 5s2 5p4
 
 Converged in 16 iterations to a total energy of -217.5984 eV
 
  Starting k-point:        1 of        5 on this process      |<-- SPEC
  Starting k-point:        2 of        5 on this process      |<-- SPEC
  Starting k-point:        3 of        5 on this process      |<-- SPEC
  Starting k-point:        4 of        5 on this process      |<-- SPEC
  Starting k-point:        5 of        5 on this process      |<-- SPEC
  Total time to compute matrix elements             40.77 sec |<-- SPEC
  

Writing model to AlSiTe3__0_0_1__DOS.orbitals
  + Calculation re-parallelised over 48 processes.                    +
  + Data distributed by G-vector(24-way), k-point(2-way)              +
 
 *********************** Forces ***********************
 *                                                    *
 *            Cartesian components (eV/A)             *
 * -------------------------------------------------- *
 *                   x            y            z      *
 *                                                    *
 * H         1     -0.00166      0.00086      0.00187 *
 * H         2     -0.00434      0.00189     -0.00325 *
 * H         3      0.00145     -0.00027      0.00139 *
 * H         4      0.00053     -0.00030      0.00008 *
 * O         1      0.00356      0.00011     -0.00127 *
 * O         2     -0.00577     -0.00676      0.00471 *
 * O         3      0.00514      0.00330     -0.01114 *
 * O         4      0.00007      0.00466     -0.00238 *
 * Al        1      0.00494      0.00080      0.00846 *
 * Al        2     -0.00369      0.00284      0.00205 *
 * Si        1     -0.00499      0.00552     -0.00402 *
 * Si        2      0.00525     -0.00426      0.00457 *
 * Te        1     -0.00334      0.00019     -0.00362 *
 * Te        2      0.00112     -0.00673      0.00701 *
 * Te        3     -0.00392     -0.00038      0.00203 *
 * Te        4      0.00272     -0.00366     -0.00015 *
 * Te        5      0.00022     -0.00121      0.00415 *
 * Te        6      0.00270      0.00339     -0.01049 *
 *                                                    *
 ******************************************************

Writing analysis data to AlSiTe3__0_0_1__DOS.castep_bin

Writing model to AlSiTe3__0_0_1__DOS.check
 
 A BibTeX formatted list of references used in this run has been written to 
 AlSiTe3__0_0_1__DOS.bib
 
Initialisation time =      9.27 s
Calculation time    =     42.89 s
Finalisation time   =      0.28 s
Total time          =     52.44 s
  
Overall parallel efficiency rating: Poor (45%)                                  
  
Data was distributed by:-
G-vector (24-way); efficiency rating: Poor (45%)                                
k-point (2-way); efficiency rating: Very good (86%)                             
  
Parallel notes:
1) Calculation only took 52.3 s, so efficiency estimates may be inaccurate.     
