 Job started on host DESKTOP-95RKRJF
 at Fri Feb 24 17:26:50 2023

 +-------------------------------------------------+
 |                                                 |
 |      CCC   AA    SSS  TTTTT  EEEEE  PPPP        |
 |     C     A  A  S       T    E      P   P       |
 |     C     AAAA   SS     T    EEE    PPPP        |
 |     C     A  A     S    T    E      P           |
 |      CCC  A  A  SSS     T    EEEEE  P           |
 |                                                 |
 +-------------------------------------------------+
 |                                                 |
 | Materials Studio CASTEP version 2017            |
 | Ab Initio Total Energy Program                  |
 |                                                 |
 | Authors:                                        |
 | M. Segall, M. Probert, C. Pickard, P. Hasnip,   |
 | S. Clark, K. Refson, J. R. Yates, M. Payne      |
 |                                                 |
 | Contributors:                                   |
 | P. Lindan, P. Haynes, J. White, V. Milman,      |
 | N. Govind, M. Gibson, P. Tulip, V. Cocula,      |
 | B. Montanari, D. Quigley, M. Glover,            |
 | L. Bernasconi, A. Perlov, M. Plummer,           |
 | E. McNellis, J. Meyer, J. Gale, D. Jochym       |
 | J. Aarons, B. Walker, R. Gillen, D. Jones       |
 | T. Green, I. J. Bush, C. J. Armstrong,          |
 | E. J. Higgins, E. L. Brown, M. S. McFly         |
 |                                                 |
 | Copyright (c) 2000 - 2016                       |
 |                                                 |
 | Please cite                                     |
 |                                                 |
 |     "First principles methods using CASTEP"     |
 |                                                 |
 |         Zeitschrift fuer Kristallographie       |
 |           220(5-6) pp. 567-570 (2005)           |
 |                                                 |
 | S. J. Clark, M. D. Segall, C. J. Pickard,       |
 | P. J. Hasnip, M. J. Probert, K. Refson,         |
 | M. C. Payne                                     |
 |                                                 |
 |       in all publications arising from          |
 |              your use of CASTEP                 |
 |                                                 |
 +-------------------------------------------------+
 
 
 This version was compiled for x86_64-windows-msvc2008 on May 05 2016
 Intel(R) Math Kernel Library Version 11.1.2 
 Fundamental constants values: CODATA 2010
 
License checkout of MS_castep successful
 
 
 Pseudo atomic calculation performed for H 1s1
 
 Converged in 13 iterations to a total energy of -12.4688 eV
 
 
 Pseudo atomic calculation performed for O 2s2 2p4
 
 Converged in 22 iterations to a total energy of -423.8174 eV
 
 
 Pseudo atomic calculation performed for Al 3s2 3p1
 
 Converged in 15 iterations to a total energy of -53.6182 eV
 
 
 Pseudo atomic calculation performed for Si 3s2 3p2
 
 Converged in 15 iterations to a total energy of -101.6421 eV
 
 
 Pseudo atomic calculation performed for Te 5s2 5p4
 
 Converged in 16 iterations to a total energy of -217.5984 eV
 
 Calculation parallelised over 48 processes.
 Data is distributed by G-vector(24-way) and k-point(2-way)

 ************************************ Title ************************************
 CASTEP calculation from Materials Studio

 ***************************** General Parameters ******************************
  
 output verbosity                               : normal  (1)
 write checkpoint data to                       : AlSiTe3__0_0_1_.check
 type of calculation                            : geometry optimization
 stress calculation                             : on
 density difference calculation                 : off
 electron localisation func (ELF) calculation   : off
 Hirshfeld analysis                             : on
 unlimited duration calculation
 timing information                             : on
 memory usage estimate                          : on
 write final potential to formatted file        : off
 write final density to formatted file          : off
 write BibTeX reference list                    : on
 write OTFG pseudopotential files               : on
 checkpoint writing                             : both castep_bin and check files
  
 output         length unit                     : A
 output           mass unit                     : amu
 output           time unit                     : ps
 output         charge unit                     : e
 output           spin unit                     : hbar/2
 output         energy unit                     : eV
 output          force unit                     : eV/A
 output       velocity unit                     : A/ps
 output       pressure unit                     : GPa
 output     inv_length unit                     : 1/A
 output      frequency unit                     : cm-1
 output force constant unit                     : eV/A**2
 output         volume unit                     : A**3
 output   IR intensity unit                     : (D/A)**2/amu
 output         dipole unit                     : D
 output         efield unit                     : eV/A/e
 output        entropy unit                     : J/mol/K
  
 wavefunctions paging                           : none
 random number generator seed                   : randomised (172651140)
 data distribution                              : optimal for this architecture
 optimization strategy                          : maximize speed(+++)

 *********************** Exchange-Correlation Parameters ***********************
  
 using functional                               : Perdew Burke Ernzerhof
 relativistic treatment                         : Koelling-Harmon
 DFT+D: Semi-empirical dispersion correction    : off

 ************************* Pseudopotential Parameters **************************
  
 pseudopotential representation                 : reciprocal space
 <beta|phi> representation                      : reciprocal space
 spin-orbit coupling                            : off

 **************************** Basis Set Parameters *****************************
  
 plane wave basis set cut-off                   :   600.0000   eV
 size of standard grid                          :     1.5000
 size of   fine   gmax                          :    18.8237   1/A
 largest prime factor in FFT                    :          5
 finite basis set correction                    : automatic
 number of sample energies                      :          3
           sample  spacing                      :     5.0000   eV

 **************************** Electronic Parameters ****************************
  
 number of  electrons                           :  78.00    
 net charge of system                           :  0.000    
 treating system as non-spin-polarized
 number of bands                                :         47

 ********************* Electronic Minimization Parameters **********************
  
 Method: Treating system as metallic with density mixing treatment of electrons,
         and number of  SD  steps               :          1
         and number of  CG  steps               :          4
  
 total energy / atom convergence tol.           : 0.2000E-05   eV
 eigen-energy convergence tolerance             : 0.7660E-06   eV
 max force / atom convergence tol.              : ignored
 convergence tolerance window                   :          3   cycles
 max. number of SCF cycles                      :       9999
 number of fixed-spin iterations                :         10
 smearing scheme                                : Gaussian
 smearing width                                 : 0.1000       eV
 Fermi energy convergence tolerance             : 0.2721E-13   eV
 periodic dipole correction                     : NONE

 ************************** Density Mixing Parameters **************************
  
 density-mixing scheme                          : Pulay
 max. length of mixing history                  :         20
 charge density mixing amplitude                : 0.5000    
 cut-off energy for mixing                      :  600.0       eV
 charge density mixing g-vector                 :  1.500       1/A

 *********************** Population Analysis Parameters ************************
  
 Population analysis with cutoff                :  3.000       A
 Partial DOS weights calculated

 ********************** Geometry Optimization Parameters ***********************
  
 optimization method                            : Delocalised internal coords
 max. number of steps                           :       9999
 total energy convergence tolerance             : 0.2000E-04   eV/atom
        max ionic |force| tolerance             : 0.5000E-01   eV/A
 max ionic |displacement| tolerance             : 0.2000E-02   A
   max |stress component| tolerance             : 0.1000       GPa
 convergence tolerance window                   :          2   steps
 backup results every                           :          5   steps

 *******************************************************************************
  
 
                           -------------------------------
                                      Unit Cell
                           -------------------------------
        Real Lattice(A)                      Reciprocal Lattice(1/A)
   5.9866628  -3.4564014   0.0000000        1.0495305   0.0000000   0.0000000
   0.0000000   6.9128027   0.0000000        0.5247653   0.9089201   0.0000000
   0.0000000   0.0000000  13.5676159        0.0000000   0.0000000   0.4631017
 
                       Lattice parameters(A)       Cell Angles
                    a =    6.912803          alpha =   90.000000
                    b =    6.912803          beta  =   90.000000
                    c =   13.567616          gamma =  120.000000
 
                       Current cell volume =  561.490612       A**3
 
                           -------------------------------
                                     Cell Contents
                           -------------------------------
                         Total number of ions in cell =   18
                      Total number of species in cell =    5
                        Max number of any one species =    6
 
            xxxxxxxxxxxxxxxxxxxxxxxxxxxxxxxxxxxxxxxxxxxxxxxxxxxxxxxxxxxx
            x  Element    Atom        Fractional coordinates of atoms  x
            x            Number           u          v          w      x
            x----------------------------------------------------------x
            x  H            1        -0.019580   0.939765   0.432107   x 
            x  H            2        -0.022627   0.677241   0.495107   x 
            x  H            3         0.625532   0.968423   0.492913   x 
            x  H            4         1.360342   1.338065   0.492167   x 
            x  O            1         0.691058   1.021810   0.417104   x 
            x  O            2         0.012408   0.648098   0.418366   x 
            x  O            3         0.413697   0.401530   0.416090   x 
            x  O            4        -0.063472   0.935161   0.353112   x 
            x  Al           1         0.666667   0.333333   0.131475   x 
            x  Al           2         0.333333   0.666667   0.131475   x 
            x  Si           1         0.000000   0.000000   0.046766   x 
            x  Si           2         0.000000   0.000000   0.216185   x 
            x  Te           1         0.000000  -0.355488   0.262951   x 
            x  Te           2         0.355488   0.355488   0.262951   x 
            x  Te           3        -0.355488   0.000000   0.262951   x 
            x  Te           4        -0.355488  -0.355488   0.000000   x 
            x  Te           5         0.000000   0.355488   0.000000   x 
            x  Te           6         0.355488   0.000000   0.000000   x 
            xxxxxxxxxxxxxxxxxxxxxxxxxxxxxxxxxxxxxxxxxxxxxxxxxxxxxxxxxxxx
 
 
                         No user defined ionic velocities
 
                           -------------------------------
                                   Details of Species
                           -------------------------------
 
                               Mass of species in AMU
                                    H    1.0080000
                                    O   15.9989996
                                    Al   26.9820004
                                    Si   28.0849991
                                    Te  127.5999985
 
                          Electric Quadrupole Moment (Barn)
                                    H    0.0028600 Isotope  2
                                    O   -0.0255800 Isotope 17
                                    Al    0.1466000 Isotope 27
                                    Si    1.0000000 No Isotope Defined
                                    Te    1.0000000 No Isotope Defined
 
                          Files used for pseudopotentials:
                                    H H_00PBE_OP.recpot
                                    O O_00PBE_OP.recpot
                                    Al Al_00.recpot
                                    Si Si_00PBE_OP.recpot
                                    Te Te_00.recpot
 
                           -------------------------------
                              k-Points For BZ Sampling
                           -------------------------------
                       MP grid size for SCF calculation is  2  2  1
                            with an offset of   0.000  0.000  0.000
                       Number of kpoints used =             2
 
                           -------------------------------
                               Symmetry and Constraints
                           -------------------------------
 
                      Maximum deviation from symmetry =  0.00000         ANG
 
         There are no symmetry operations specified or generated for this cell
         There are no ionic constraints specified or generated for this cell
                      Point group of crystal =     1: C1, 1, 1
                      Space group of crystal =     1: P1, P 1
 
 
                         Centre of mass is NOT constrained
 
                         Number of cell constraints= 6
                         Cell constraints are:  0 0 0 0 0 0
 
                         External pressure/stress (GPa)
                          0.00000   0.00000   0.00000
                                    0.00000   0.00000
                                              0.00000
  
+---------------- MEMORY AND SCRATCH DISK ESTIMATES PER PROCESS --------------+
|                                                     Memory          Disk    |
| Baseline code, static data and system overhead        0.0 MB         0.0 MB |
| BLAS internal memory storage                          0.0 MB         0.0 MB |
| Model and support data                               19.3 MB         0.0 MB |
| Electronic energy minimisation requirements           3.2 MB         0.0 MB |
| Force calculation requirements                        1.3 MB         0.0 MB |
| Stress calculation requirements                       1.5 MB         0.0 MB |
|                                               ----------------------------- |
| Approx. total storage required per process           22.5 MB         0.0 MB |
|                                                                             |
| Requirements will fluctuate during execution and may exceed these estimates |
+-----------------------------------------------------------------------------+
Calculating finite basis set correction with  3 cut-off energies.
Calculating total energy with cut-off of  590.000eV.
------------------------------------------------------------------------ <-- SCF
SCF loop      Energy           Fermi           Energy gain       Timer   <-- SCF
                               energy          per atom          (sec)   <-- SCF
------------------------------------------------------------------------ <-- SCF
Initial  -4.30629785E+002  0.00000000E+000                         1.08  <-- SCF
      1  -3.06099466E+003  3.24142314E+000   1.46131382E+002       1.47  <-- SCF
      2  -3.41228513E+003 -2.16918692E+000   1.95161372E+001       1.81  <-- SCF
      3  -3.44302022E+003 -2.04209589E+000   1.70750475E+000       2.16  <-- SCF
      4  -3.43566340E+003 -1.64463996E+000  -4.08712142E-001       2.50  <-- SCF
      5  -3.43546952E+003 -1.70569554E+000  -1.07714000E-002       2.89  <-- SCF
      6  -3.43530105E+003 -1.63494845E+000  -9.35903297E-003       3.30  <-- SCF
      7  -3.43520073E+003 -1.58704125E+000  -5.57336796E-003       3.70  <-- SCF
      8  -3.43520058E+003 -1.58115115E+000  -8.45790583E-006       4.09  <-- SCF
      9  -3.43517477E+003 -1.51395004E+000  -1.43362757E-003       4.47  <-- SCF
     10  -3.43517073E+003 -1.48900533E+000  -2.24713059E-004       4.92  <-- SCF
     11  -3.43516941E+003 -1.46791205E+000  -7.30972949E-005       6.83  <-- SCF
     12  -3.43517290E+003 -1.41921026E+000   1.93698543E-004       7.59  <-- SCF
     13  -3.43517656E+003 -1.39726891E+000   2.03371499E-004       8.12  <-- SCF
     14  -3.43517944E+003 -1.37993035E+000   1.59864108E-004       8.47  <-- SCF
     15  -3.43517980E+003 -1.37722034E+000   2.01231159E-005       8.77  <-- SCF
     16  -3.43517983E+003 -1.37236434E+000   1.41994906E-006       9.08  <-- SCF
     17  -3.43518000E+003 -1.37115470E+000   9.78968638E-006       9.36  <-- SCF
     18  -3.43518014E+003 -1.37117796E+000   7.50219651E-006       9.66  <-- SCF
     19  -3.43518016E+003 -1.37125017E+000   9.74881757E-007       9.97  <-- SCF
     20  -3.43518016E+003 -1.37130822E+000   2.83859452E-007      10.23  <-- SCF
------------------------------------------------------------------------ <-- SCF
 
Final energy, E             =  -3435.167791228     eV
Final free energy (E-TS)    =  -3435.180160450     eV
(energies not corrected for finite basis set)
 
NB est. 0K energy (E-0.5TS)      =  -3435.173975839     eV
 
Calculating total energy with cut-off of  595.000eV.
------------------------------------------------------------------------ <-- SCF
SCF loop      Energy           Fermi           Energy gain       Timer   <-- SCF
                               energy          per atom          (sec)   <-- SCF
------------------------------------------------------------------------ <-- SCF
Initial  -3.43516779E+003  0.00000000E+000                        10.39  <-- SCF
      1  -3.43522228E+003 -1.37199679E+000   3.02709793E-003      10.67  <-- SCF
      2  -3.43522228E+003 -1.37199663E+000   1.95667886E-007      10.91  <-- SCF
      3  -3.43522230E+003 -1.37142298E+000   1.11534660E-006      11.16  <-- SCF
      4  -3.43522231E+003 -1.37152369E+000   1.61708173E-007      11.41  <-- SCF
------------------------------------------------------------------------ <-- SCF
 
Final energy, E             =  -3435.209924631     eV
Final free energy (E-TS)    =  -3435.222306531     eV
(energies not corrected for finite basis set)
 
NB est. 0K energy (E-0.5TS)      =  -3435.216115581     eV
 
Calculating total energy with cut-off of  600.000eV.
------------------------------------------------------------------------ <-- SCF
SCF loop      Energy           Fermi           Energy gain       Timer   <-- SCF
                               energy          per atom          (sec)   <-- SCF
------------------------------------------------------------------------ <-- SCF
Initial  -3.43520917E+003  0.00000000E+000                        11.55  <-- SCF
      1  -3.43527008E+003 -1.37186041E+000   3.38379505E-003      11.86  <-- SCF
      2  -3.43527009E+003 -1.37186028E+000   2.62403524E-007      12.22  <-- SCF
      3  -3.43527012E+003 -1.37117027E+000   1.69955504E-006      12.52  <-- SCF
      4  -3.43527012E+003 -1.37144257E+000   1.63829744E-007      12.75  <-- SCF
------------------------------------------------------------------------ <-- SCF
 
Final energy, E             =  -3435.257766421     eV
Final free energy (E-TS)    =  -3435.270120397     eV
(energies not corrected for finite basis set)
 
NB est. 0K energy (E-0.5TS)      =  -3435.263943409     eV
 
 For future reference: finite basis dEtot/dlog(Ecut) =      -5.103774eV
 Total energy corrected for finite basis set =   -3435.269660 eV
 
+---------------- MEMORY AND SCRATCH DISK ESTIMATES PER PROCESS --------------+
|                                                     Memory          Disk    |
| Model and support data                               23.0 MB         0.0 MB |
| Electronic energy minimisation requirements           3.2 MB         0.0 MB |
| Geometry minimisation requirements                    0.0 MB         0.0 MB |
|                                               ----------------------------- |
| Approx. total storage required per process           26.2 MB         0.0 MB |
|                                                                             |
| Requirements will fluctuate during execution and may exceed these estimates |
+-----------------------------------------------------------------------------+
 
 
 *********************************** Forces ***********************************
 *                                                                            *
 *                        Cartesian components (eV/A)                         *
 * -------------------------------------------------------------------------- *
 *                   x                    y                    z              *
 *                                                                            *
 * H         1     -0.54919              0.49917             -4.29057         *
 * H         2      0.15060             -0.94366             -3.86435         *
 * H         3      0.22300              0.69958             -3.98482         *
 * H         4      0.42939              0.47214             -4.01574         *
 * O         1     -0.85480              0.15002              3.30367         *
 * O         2      0.35827             -0.44279              3.15853         *
 * O         3     -0.30382             -0.33191              2.61878         *
 * O         4      1.21790             -0.18564              1.97155         *
 * Al        1     -0.00809              0.06604              0.07251         *
 * Al        2      0.02120             -0.00024             -0.02277         *
 * Si        1     -0.08596              0.07103             -0.33063         *
 * Si        2     -0.04141             -0.22279              2.58445         *
 * Te        1     -0.09098             -0.20234              0.95014         *
 * Te        2      0.11698              0.08777              0.94339         *
 * Te        3     -0.62517              0.21676              0.80621         *
 * Te        4      0.05854              0.07831             -0.01618         *
 * Te        5     -0.01332             -0.11172             -0.01986         *
 * Te        6     -0.00313              0.10028              0.13569         *
 *                                                                            *
 ******************************************************************************
Message: Generating delocalized internals

Total number of primitive bonds:             27
Total number of primitive angles:            77
Total number of primitive dihedrals:        229

Total number of primitive internals:        333

Message: Generation of delocalized internals is successful
 
 DI: finished iteration   0  with energy= -3.43527012E+003 eV
  
 +-----------+-----------------+-----------------+------------+-----+ <-- DI
 | Parameter |      value      |    tolerance    |    units   | OK? | <-- DI
 +-----------+-----------------+-----------------+------------+-----+ <-- DI
 |  dE/ion   |   0.000000E+000 |   2.000000E-005 |         eV | No  | <-- DI
 |  |F|max   |   4.354285E+000 |   5.000000E-002 |       eV/A | No  | <-- DI
 |  |dR|max  |   0.000000E+000 |   2.000000E-003 |          A | No  | <-- DI
 +-----------+-----------------+-----------------+------------+-----+ <-- DI
  

================================================================================
 Starting DI iteration    1 ...
================================================================================

 Startup Hessian in Internal Coordinates

 The size of active space is :    51
 There are :     51  degrees of freedom
 There are :    117  primitive internals


--------------------------------------------------------------------------------
 DI: structure has been updated on iteration   1
--------------------------------------------------------------------------------
 
                           -------------------------------
                                     Cell Contents
                           -------------------------------
 
            xxxxxxxxxxxxxxxxxxxxxxxxxxxxxxxxxxxxxxxxxxxxxxxxxxxxxxxxxxxx
            x  Element    Atom        Fractional coordinates of atoms  x
            x            Number           u          v          w      x
            x----------------------------------------------------------x
            x  H            1        -0.002223   0.952693   0.432179   x
            x  H            2        -0.009514   0.634612   0.493543   x
            x  H            3         0.566072   0.972352   0.486238   x
            x  H            4         1.362212   1.341165   0.486628   x
            x  O            1         0.657093   1.030167   0.418256   x
            x  O            2         0.025216   0.618122   0.417818   x
            x  O            3         0.421182   0.409962   0.414625   x
            x  O            4        -0.054241   0.941853   0.357095   x
            x  Al           1         0.670869   0.337510   0.131233   x
            x  Al           2         0.337412   0.670217   0.130619   x
            x  Si           1         0.002577   0.003045   0.051000   x
            x  Si           2         0.001832   0.000888   0.221087   x
            x  Te           1         0.005391  -0.357198   0.264010   x
            x  Te           2         0.360032   0.360283   0.262701   x
            x  Te           3        -0.357123   0.003564   0.263699   x
            x  Te           4        -0.349496  -0.350138  -0.000020   x
            x  Te           5         0.003333   0.356507   0.000287   x
            x  Te           6         0.356733   0.004487   0.000722   x
            xxxxxxxxxxxxxxxxxxxxxxxxxxxxxxxxxxxxxxxxxxxxxxxxxxxxxxxxxxxx
 
 
------------------------------------------------------------------------ <-- SCF
SCF loop      Energy           Fermi           Energy gain       Timer   <-- SCF
                               energy          per atom          (sec)   <-- SCF
------------------------------------------------------------------------ <-- SCF
Initial  -3.29734274E+003  0.00000000E+000                        13.02  <-- SCF
      1  -3.42174310E+003 -1.31724411E+000   6.91113091E+000      13.38  <-- SCF
      2  -3.43568934E+003 -1.57262834E+000   7.74791277E-001      13.72  <-- SCF
      3  -3.43677230E+003 -1.34454655E+000   6.01642442E-002      14.19  <-- SCF
      4  -3.43662240E+003 -1.29193183E+000  -8.32781175E-003      14.58  <-- SCF
      5  -3.43670961E+003 -1.27708789E+000   4.84500131E-003      15.00  <-- SCF
      6  -3.43670867E+003 -1.29169273E+000  -5.19100459E-005      15.39  <-- SCF
      7  -3.43671194E+003 -1.29128949E+000   1.81371015E-004      15.75  <-- SCF
      8  -3.43671335E+003 -1.29220658E+000   7.82037204E-005      16.11  <-- SCF
      9  -3.43671450E+003 -1.29294860E+000   6.42741944E-005      16.39  <-- SCF
     10  -3.43671538E+003 -1.29350557E+000   4.86339299E-005      16.69  <-- SCF
     11  -3.43671588E+003 -1.29356629E+000   2.80755616E-005      16.98  <-- SCF
     12  -3.43671605E+003 -1.29387030E+000   9.07075204E-006      17.27  <-- SCF
     13  -3.43671612E+003 -1.29407915E+000   4.12847131E-006      17.61  <-- SCF
     14  -3.43671618E+003 -1.29424831E+000   3.13381653E-006      17.89  <-- SCF
     15  -3.43671619E+003 -1.29433330E+000   4.73633302E-007      18.17  <-- SCF
     16  -3.43671619E+003 -1.29447411E+000   7.69459223E-008      18.41  <-- SCF
------------------------------------------------------------------------ <-- SCF
 
Final energy, E             =  -3436.701216803     eV
Final free energy (E-TS)    =  -3436.716187377     eV
(energies not corrected for finite basis set)
 
NB est. 0K energy (E-0.5TS)      =  -3436.708702090     eV
 
 
 *********************************** Forces ***********************************
 *                                                                            *
 *                        Cartesian components (eV/A)                         *
 * -------------------------------------------------------------------------- *
 *                   x                    y                    z              *
 *                                                                            *
 * H         1     -0.60971              0.46582             -3.56396         *
 * H         2     -0.01136             -0.27175             -3.41158         *
 * H         3      0.64742              0.14449             -3.52125         *
 * H         4      0.36966              0.41873             -3.37266         *
 * O         1     -0.60614              0.16907              2.08310         *
 * O         2      0.37435             -0.47913              2.22196         *
 * O         3     -0.24382             -0.27596              2.01740         *
 * O         4      0.80789             -0.08410              1.85028         *
 * Al        1     -0.01653              0.09003              0.05979         *
 * Al        2     -0.02450             -0.00913             -0.01895         *
 * Si        1     -0.08626              0.06302             -0.34805         *
 * Si        2     -0.02041             -0.30118              2.85158         *
 * Te        1     -0.08084             -0.18118              0.92132         *
 * Te        2      0.10134              0.07615              0.92697         *
 * Te        3     -0.60111              0.13714              1.11676         *
 * Te        4      0.04107              0.07376              0.02895         *
 * Te        5     -0.04656             -0.10473              0.00795         *
 * Te        6      0.00552              0.06893              0.15040         *
 *                                                                            *
 ******************************************************************************
 DI: finished iteration   1  with energy= -3.43671619E+003 eV
  
 +-----------+-----------------+-----------------+------------+-----+ <-- DI
 | Parameter |      value      |    tolerance    |    units   | OK? | <-- DI
 +-----------+-----------------+-----------------+------------+-----+ <-- DI
 |  dE/ion   |   8.033705E-002 |   2.000000E-005 |         eV | No  | <-- DI
 |  |F|max   |   3.645622E+000 |   5.000000E-002 |       eV/A | No  | <-- DI
 |  |dR|max  |   4.348023E-001 |   2.000000E-003 |          A | No  | <-- DI
 +-----------+-----------------+-----------------+------------+-----+ <-- DI
  

================================================================================
 Starting DI iteration    2 ...
================================================================================

--------------------------------------------------------------------------------
 DI: structure has been updated on iteration   2
--------------------------------------------------------------------------------
 
                           -------------------------------
                                     Cell Contents
                           -------------------------------
 
            xxxxxxxxxxxxxxxxxxxxxxxxxxxxxxxxxxxxxxxxxxxxxxxxxxxxxxxxxxxx
            x  Element    Atom        Fractional coordinates of atoms  x
            x            Number           u          v          w      x
            x----------------------------------------------------------x
            x  H            1         0.009823   0.964840   0.432211   x
            x  H            2        -0.007093   0.613125   0.488170   x
            x  H            3         0.527968   0.960196   0.475359   x
            x  H            4         1.362128   1.344669   0.480398   x
            x  O            1         0.637807   1.028688   0.417669   x
            x  O            2         0.032724   0.600373   0.416468   x
            x  O            3         0.428268   0.419823   0.413940   x
            x  O            4        -0.048438   0.948374   0.361939   x
            x  Al           1         0.673509   0.340486   0.132203   x
            x  Al           2         0.340046   0.672383   0.130548   x
            x  Si           1         0.004561   0.004709   0.056281   x
            x  Si           2         0.003596   0.002515   0.227288   x
            x  Te           1         0.009678  -0.358339   0.265323   x
            x  Te           2         0.364195   0.365442   0.263784   x
            x  Te           3        -0.359051   0.005216   0.264804   x
            x  Te           4        -0.344298  -0.345777   0.001119   x
            x  Te           5         0.004696   0.355392   0.001789   x
            x  Te           6         0.357238   0.007979   0.002426   x
            xxxxxxxxxxxxxxxxxxxxxxxxxxxxxxxxxxxxxxxxxxxxxxxxxxxxxxxxxxxx
 
 
------------------------------------------------------------------------ <-- SCF
SCF loop      Energy           Fermi           Energy gain       Timer   <-- SCF
                               energy          per atom          (sec)   <-- SCF
------------------------------------------------------------------------ <-- SCF
Initial  -3.37502372E+003  0.00000000E+000                        18.61  <-- SCF
      1  -3.43184390E+003 -1.58222316E+000   3.15667673E+000      18.94  <-- SCF
      2  -3.43789218E+003 -1.22397581E+000   3.36015118E-001      19.30  <-- SCF
      3  -3.43792264E+003 -1.24112833E+000   1.69237769E-003      19.77  <-- SCF
      4  -3.43792013E+003 -1.20711146E+000  -1.39370908E-004      20.17  <-- SCF
      5  -3.43794847E+003 -1.20537817E+000   1.57427196E-003      20.55  <-- SCF
      6  -3.43795016E+003 -1.20941057E+000   9.41736861E-005      20.97  <-- SCF
      7  -3.43795096E+003 -1.21134863E+000   4.43985803E-005      21.31  <-- SCF
      8  -3.43795139E+003 -1.21017375E+000   2.39670906E-005      21.67  <-- SCF
      9  -3.43795190E+003 -1.21104306E+000   2.83739671E-005      22.03  <-- SCF
     10  -3.43795218E+003 -1.21206466E+000   1.50625336E-005      22.33  <-- SCF
     11  -3.43795246E+003 -1.21300051E+000   1.56959141E-005      22.66  <-- SCF
     12  -3.43795265E+003 -1.21384883E+000   1.06110449E-005      22.98  <-- SCF
     13  -3.43795279E+003 -1.21499943E+000   7.95214073E-006      23.30  <-- SCF
     14  -3.43795281E+003 -1.21613605E+000   1.27768539E-006      23.58  <-- SCF
     15  -3.43795282E+003 -1.21669339E+000   3.34516937E-007      23.84  <-- SCF
------------------------------------------------------------------------ <-- SCF
 
Final energy, E             =  -3437.930629150     eV
Final free energy (E-TS)    =  -3437.952820723     eV
(energies not corrected for finite basis set)
 
NB est. 0K energy (E-0.5TS)      =  -3437.941724937     eV
 
 
 *********************************** Forces ***********************************
 *                                                                            *
 *                        Cartesian components (eV/A)                         *
 * -------------------------------------------------------------------------- *
 *                   x                    y                    z              *
 *                                                                            *
 * H         1     -0.31593              0.33086             -2.22990         *
 * H         2     -0.21603              0.09291             -2.25757         *
 * H         3      0.41728             -0.06838             -2.40456         *
 * H         4      0.11346              0.20846             -2.22958         *
 * O         1     -0.20406              0.25779              0.87773         *
 * O         2      0.50855             -0.50212              1.12737         *
 * O         3      0.03243             -0.12285              1.03446         *
 * O         4      0.46408              0.01095              0.66635         *
 * Al        1      0.01215              0.10236              0.02653         *
 * Al        2     -0.08653             -0.01154             -0.05288         *
 * Si        1     -0.09184              0.07001             -0.33613         *
 * Si        2     -0.01481             -0.36690              2.99138         *
 * Te        1     -0.07591             -0.21563              0.63096         *
 * Te        2      0.07397              0.08469              0.81138         *
 * Te        3     -0.61752              0.09873              1.07952         *
 * Te        4      0.02768              0.07525              0.07360         *
 * Te        5     -0.05692             -0.09580              0.01996         *
 * Te        6      0.02994              0.05120              0.17138         *
 *                                                                            *
 ******************************************************************************
 DI: finished iteration   2  with energy= -3.43795282E+003 eV
  
 +-----------+-----------------+-----------------+------------+-----+ <-- DI
 | Parameter |      value      |    tolerance    |    units   | OK? | <-- DI
 +-----------+-----------------+-----------------+------------+-----+ <-- DI
 |  dE/ion   |   6.870185E-002 |   2.000000E-005 |         eV | No  | <-- DI
 |  |F|max   |   3.013837E+000 |   5.000000E-002 |       eV/A | No  | <-- DI
 |  |dR|max  |   2.758524E-001 |   2.000000E-003 |          A | No  | <-- DI
 +-----------+-----------------+-----------------+------------+-----+ <-- DI
  

================================================================================
 Starting DI iteration    3 ...
================================================================================

--------------------------------------------------------------------------------
 DI: structure has been updated on iteration   3
--------------------------------------------------------------------------------
 
                           -------------------------------
                                     Cell Contents
                           -------------------------------
 
            xxxxxxxxxxxxxxxxxxxxxxxxxxxxxxxxxxxxxxxxxxxxxxxxxxxxxxxxxxxx
            x  Element    Atom        Fractional coordinates of atoms  x
            x            Number           u          v          w      x
            x----------------------------------------------------------x
            x  H            1         0.025988   0.979011   0.433401   x
            x  H            2        -0.011082   0.601204   0.482343   x
            x  H            3         0.488703   0.943967   0.461782   x
            x  H            4         1.365183   1.345845   0.474433   x
            x  O            1         0.616280   1.024274   0.416032   x
            x  O            2         0.036927   0.587870   0.415048   x
            x  O            3         0.438360   0.428267   0.413166   x
            x  O            4        -0.040416   0.955915   0.367494   x
            x  Al           1         0.676267   0.342668   0.133079   x
            x  Al           2         0.342483   0.673446   0.130582   x
            x  Si           1         0.006405   0.005641   0.062302   x
            x  Si           2         0.005885   0.003951   0.234430   x
            x  Te           1         0.013710  -0.359872   0.266410   x
            x  Te           2         0.369180   0.370154   0.265040   x
            x  Te           3        -0.360945   0.005975   0.265751   x
            x  Te           4        -0.338748  -0.341621   0.002547   x
            x  Te           5         0.006126   0.353034   0.003395   x
            x  Te           6         0.357051   0.010365   0.004485   x
            xxxxxxxxxxxxxxxxxxxxxxxxxxxxxxxxxxxxxxxxxxxxxxxxxxxxxxxxxxxx
 
 
------------------------------------------------------------------------ <-- SCF
SCF loop      Energy           Fermi           Energy gain       Timer   <-- SCF
                               energy          per atom          (sec)   <-- SCF
------------------------------------------------------------------------ <-- SCF
Initial  -3.38500712E+003  0.00000000E+000                        24.08  <-- SCF
      1  -3.43261004E+003 -1.51162149E+000   2.64460711E+000      24.39  <-- SCF
      2  -3.43880904E+003 -1.14026799E+000   3.44388625E-001      24.73  <-- SCF
      3  -3.43882848E+003 -1.15580880E+000   1.08018919E-003      25.22  <-- SCF
      4  -3.43887102E+003 -1.11692591E+000   2.36311468E-003      25.58  <-- SCF
      5  -3.43887520E+003 -1.12905517E+000   2.32185274E-004      25.97  <-- SCF
      6  -3.43887765E+003 -1.13237174E+000   1.36331647E-004      26.36  <-- SCF
      7  -3.43887828E+003 -1.13256486E+000   3.51121145E-005      26.73  <-- SCF
      8  -3.43887905E+003 -1.13379892E+000   4.26622653E-005      27.08  <-- SCF
      9  -3.43887934E+003 -1.13456043E+000   1.61104391E-005      27.44  <-- SCF
     10  -3.43887967E+003 -1.13648058E+000   1.79314681E-005      27.73  <-- SCF
     11  -3.43887995E+003 -1.13823985E+000   1.56144588E-005      28.06  <-- SCF
     12  -3.43888031E+003 -1.14049339E+000   2.00322630E-005      28.38  <-- SCF
     13  -3.43888059E+003 -1.14268112E+000   1.55135654E-005      28.66  <-- SCF
     14  -3.43888064E+003 -1.14433837E+000   3.13261468E-006      28.94  <-- SCF
     15  -3.43888066E+003 -1.14490421E+000   9.19515162E-007      29.25  <-- SCF
     16  -3.43888066E+003 -1.14531983E+000   2.29740815E-007      29.53  <-- SCF
------------------------------------------------------------------------ <-- SCF
 
Final energy, E             =  -3438.848532748     eV
Final free energy (E-TS)    =  -3438.880663017     eV
(energies not corrected for finite basis set)
 
NB est. 0K energy (E-0.5TS)      =  -3438.864597883     eV
 
 
 *********************************** Forces ***********************************
 *                                                                            *
 *                        Cartesian components (eV/A)                         *
 * -------------------------------------------------------------------------- *
 *                   x                    y                    z              *
 *                                                                            *
 * H         1      0.11729              0.18763             -0.93826         *
 * H         2     -0.48309              0.34856             -1.11278         *
 * H         3     -0.09102             -0.27628             -1.38768         *
 * H         4     -0.24759             -0.05340             -1.11425         *
 * O         1      0.43346              0.34418             -0.06278         *
 * O         2      0.71436             -0.60158              0.20221         *
 * O         3      0.37639              0.15715              0.12258         *
 * O         4     -0.01771              0.21789             -0.48091         *
 * Al        1      0.03795              0.11279             -0.02539         *
 * Al        2     -0.13043             -0.01734             -0.11809         *
 * Si        1     -0.09540              0.06575             -0.32245         *
 * Si        2      0.02099             -0.38791              3.02036         *
 * Te        1     -0.08275             -0.22725              0.32924         *
 * Te        2      0.02871              0.09633              0.63278         *
 * Te        3     -0.60083              0.02242              0.92176         *
 * Te        4      0.02060              0.05947              0.11950         *
 * Te        5     -0.07555             -0.08211              0.03467         *
 * Te        6      0.07463              0.03371              0.17949         *
 *                                                                            *
 ******************************************************************************
 DI: finished iteration   3  with energy= -3.43888066E+003 eV
  
 +-----------+-----------------+-----------------+------------+-----+ <-- DI
 | Parameter |      value      |    tolerance    |    units   | OK? | <-- DI
 +-----------+-----------------+-----------------+------------+-----+ <-- DI
 |  dE/ion   |   5.154679E-002 |   2.000000E-005 |         eV | No  | <-- DI
 |  |F|max   |   3.045240E+000 |   5.000000E-002 |       eV/A | No  | <-- DI
 |  |dR|max  |   2.995732E-001 |   2.000000E-003 |          A | No  | <-- DI
 +-----------+-----------------+-----------------+------------+-----+ <-- DI
  

================================================================================
 Starting DI iteration    4 ...
================================================================================

--------------------------------------------------------------------------------
 DI: structure has been updated on iteration   4
--------------------------------------------------------------------------------
 
                           -------------------------------
                                     Cell Contents
                           -------------------------------
 
            xxxxxxxxxxxxxxxxxxxxxxxxxxxxxxxxxxxxxxxxxxxxxxxxxxxxxxxxxxxx
            x  Element    Atom        Fractional coordinates of atoms  x
            x            Number           u          v          w      x
            x----------------------------------------------------------x
            x  H            1         0.047236   0.997956   0.435779   x
            x  H            2        -0.018773   0.589080   0.476470   x
            x  H            3         0.451238   0.922025   0.446248   x
            x  H            4         1.367602   1.351536   0.469092   x
            x  O            1         0.593150   1.014634   0.413444   x
            x  O            2         0.039105   0.574639   0.413393   x
            x  O            3         0.447997   0.440351   0.412114   x
            x  O            4        -0.029758   0.966422   0.373863   x
            x  Al           1         0.678851   0.344374   0.134130   x
            x  Al           2         0.344450   0.673990   0.130083   x
            x  Si           1         0.008214   0.005869   0.068994   x
            x  Si           2         0.008561   0.005616   0.242429   x
            x  Te           1         0.017993  -0.361300   0.267305   x
            x  Te           2         0.373964   0.375423   0.266166   x
            x  Te           3        -0.363127   0.005254   0.266377   x
            x  Te           4        -0.332587  -0.337646   0.004158   x
            x  Te           5         0.006577   0.348941   0.005110   x
            x  Te           6         0.356664   0.012927   0.006563   x
            xxxxxxxxxxxxxxxxxxxxxxxxxxxxxxxxxxxxxxxxxxxxxxxxxxxxxxxxxxxx
 
 
------------------------------------------------------------------------ <-- SCF
SCF loop      Energy           Fermi           Energy gain       Timer   <-- SCF
                               energy          per atom          (sec)   <-- SCF
------------------------------------------------------------------------ <-- SCF
Initial  -3.37774671E+003  0.00000000E+000                        29.77  <-- SCF
      1  -3.42973892E+003 -1.56544576E+000   2.88845595E+000      30.08  <-- SCF
      2  -3.43949692E+003 -1.05877265E+000   5.42111332E-001      30.34  <-- SCF
      3  -3.43954082E+003 -1.08067809E+000   2.43839999E-003      30.84  <-- SCF
      4  -3.43958581E+003 -1.04159584E+000   2.49945421E-003      31.20  <-- SCF
      5  -3.43959030E+003 -1.05606950E+000   2.49735294E-004      31.62  <-- SCF
      6  -3.43959212E+003 -1.05828709E+000   1.01256975E-004      32.02  <-- SCF
      7  -3.43959276E+003 -1.05934996E+000   3.52921133E-005      32.41  <-- SCF
      8  -3.43959343E+003 -1.06115520E+000   3.70330764E-005      32.78  <-- SCF
      9  -3.43959379E+003 -1.06250715E+000   2.04444982E-005      33.14  <-- SCF
     10  -3.43959410E+003 -1.06447805E+000   1.67782763E-005      33.45  <-- SCF
     11  -3.43959444E+003 -1.06717649E+000   1.89953220E-005      33.78  <-- SCF
     12  -3.43959480E+003 -1.07014404E+000   2.03257798E-005      34.11  <-- SCF
     13  -3.43959516E+003 -1.07315630E+000   1.97317076E-005      34.44  <-- SCF
     14  -3.43959523E+003 -1.07486054E+000   3.98701186E-006      34.73  <-- SCF
     15  -3.43959524E+003 -1.07507808E+000   5.93861000E-007      35.06  <-- SCF
     16  -3.43959525E+003 -1.07552276E+000   2.58257058E-007      35.30  <-- SCF
------------------------------------------------------------------------ <-- SCF
 
Final energy, E             =  -3439.556268423     eV
Final free energy (E-TS)    =  -3439.595245633     eV
(energies not corrected for finite basis set)
 
NB est. 0K energy (E-0.5TS)      =  -3439.575757028     eV
 
 
 *********************************** Forces ***********************************
 *                                                                            *
 *                        Cartesian components (eV/A)                         *
 * -------------------------------------------------------------------------- *
 *                   x                    y                    z              *
 *                                                                            *
 * H         1      0.50391              0.09924             -0.10195         *
 * H         2     -0.71524              0.55256             -0.32958         *
 * H         3     -0.55920             -0.43855             -0.74645         *
 * H         4     -0.53814             -0.25927             -0.33051         *
 * O         1      0.94823              0.41105             -0.43501         *
 * O         2      0.88235             -0.65404             -0.26763         *
 * O         3      0.71471              0.31169             -0.40579         *
 * O         4     -0.55537              0.27329             -1.23439         *
 * Al        1      0.06017              0.13673             -0.09245         *
 * Al        2     -0.15142             -0.02225             -0.19771         *
 * Si        1     -0.09856              0.06868             -0.30282         *
 * Si        2      0.09291             -0.35607              2.89016         *
 * Te        1     -0.09740             -0.17794              0.05408         *
 * Te        2     -0.02863              0.11024              0.40111         *
 * Te        3     -0.49784             -0.07834              0.67355         *
 * Te        4      0.00933              0.03989              0.17285         *
 * Te        5     -0.09597             -0.03465              0.06313         *
 * Te        6      0.12616              0.01773              0.18941         *
 *                                                                            *
 ******************************************************************************
 DI: finished iteration   4  with energy= -3.43959525E+003 eV
  
 +-----------+-----------------+-----------------+------------+-----+ <-- DI
 | Parameter |      value      |    tolerance    |    units   | OK? | <-- DI
 +-----------+-----------------+-----------------+------------+-----+ <-- DI
 |  dE/ion   |   3.969903E-002 |   2.000000E-005 |         eV | No  | <-- DI
 |  |F|max   |   2.913496E+000 |   5.000000E-002 |       eV/A | No  | <-- DI
 |  |dR|max  |   3.085704E-001 |   2.000000E-003 |          A | No  | <-- DI
 +-----------+-----------------+-----------------+------------+-----+ <-- DI
  

================================================================================
 Starting DI iteration    5 ...
================================================================================

Writing analysis data to AlSiTe3__0_0_1_.castep_bin

Writing model to AlSiTe3__0_0_1_.check

--------------------------------------------------------------------------------
 DI: structure has been updated on iteration   5
--------------------------------------------------------------------------------
 
                           -------------------------------
                                     Cell Contents
                           -------------------------------
 
            xxxxxxxxxxxxxxxxxxxxxxxxxxxxxxxxxxxxxxxxxxxxxxxxxxxxxxxxxxxx
            x  Element    Atom        Fractional coordinates of atoms  x
            x            Number           u          v          w      x
            x----------------------------------------------------------x
            x  H            1         0.066922   1.015282   0.438233   x
            x  H            2        -0.031440   0.581141   0.470495   x
            x  H            3         0.418098   0.897676   0.429546   x
            x  H            4         1.374886   1.357479   0.464122   x
            x  O            1         0.569342   1.001593   0.410215   x
            x  O            2         0.037837   0.563892   0.412318   x
            x  O            3         0.461442   0.452443   0.410686   x
            x  O            4        -0.021137   0.975608   0.380134   x
            x  Al           1         0.681502   0.346182   0.135247   x
            x  Al           2         0.345921   0.674425   0.129584   x
            x  Si           1         0.010368   0.006515   0.075994   x
            x  Si           2         0.011206   0.007752   0.250866   x
            x  Te           1         0.021960  -0.361978   0.268238   x
            x  Te           2         0.378640   0.380680   0.267205   x
            x  Te           3        -0.365172   0.004101   0.266876   x
            x  Te           4        -0.326036  -0.332990   0.006201   x
            x  Te           5         0.006737   0.344592   0.006934   x
            x  Te           6         0.356281   0.015698   0.008823   x
            xxxxxxxxxxxxxxxxxxxxxxxxxxxxxxxxxxxxxxxxxxxxxxxxxxxxxxxxxxxx
 
 
------------------------------------------------------------------------ <-- SCF
SCF loop      Energy           Fermi           Energy gain       Timer   <-- SCF
                               energy          per atom          (sec)   <-- SCF
------------------------------------------------------------------------ <-- SCF
Initial  -3.38328079E+003  0.00000000E+000                        35.67  <-- SCF
      1  -3.43291173E+003 -1.47938825E+000   2.75727441E+000      35.98  <-- SCF
      2  -3.44009033E+003 -9.86993839E-001   3.98811571E-001      36.27  <-- SCF
      3  -3.44012011E+003 -1.00596936E+000   1.65418482E-003      36.75  <-- SCF
      4  -3.44015854E+003 -9.75243191E-001   2.13489963E-003      37.16  <-- SCF
      5  -3.44016305E+003 -9.86653648E-001   2.50582544E-004      37.58  <-- SCF
      6  -3.44016477E+003 -9.88883668E-001   9.57867198E-005      37.98  <-- SCF
      7  -3.44016526E+003 -9.90822278E-001   2.73645463E-005      38.34  <-- SCF
      8  -3.44016581E+003 -9.93110155E-001   3.00904034E-005      38.70  <-- SCF
      9  -3.44016607E+003 -9.94617400E-001   1.48803398E-005      39.02  <-- SCF
     10  -3.44016634E+003 -9.96853497E-001   1.48413954E-005      39.34  <-- SCF
     11  -3.44016659E+003 -9.99331044E-001   1.40843022E-005      39.62  <-- SCF
     12  -3.44016702E+003 -1.00321772E+000   2.33631888E-005      39.95  <-- SCF
     13  -3.44016735E+003 -1.00639518E+000   1.86789230E-005      40.30  <-- SCF
     14  -3.44016743E+003 -1.00749057E+000   4.14890720E-006      40.58  <-- SCF
     15  -3.44016744E+003 -1.00807820E+000   7.54956623E-007      40.81  <-- SCF
     16  -3.44016744E+003 -1.00834056E+000   2.25912321E-007      41.12  <-- SCF
------------------------------------------------------------------------ <-- SCF
 
Final energy, E             =  -3440.127820334     eV
Final free energy (E-TS)    =  -3440.167443996     eV
(energies not corrected for finite basis set)
 
NB est. 0K energy (E-0.5TS)      =  -3440.147632165     eV
 
 
 *********************************** Forces ***********************************
 *                                                                            *
 *                        Cartesian components (eV/A)                         *
 * -------------------------------------------------------------------------- *
 *                   x                    y                    z              *
 *                                                                            *
 * H         1      0.76858              0.05212              0.31845         *
 * H         2     -0.84255              0.64138              0.05629         *
 * H         3     -0.80254             -0.54688             -0.35371         *
 * H         4     -0.68604             -0.36441              0.13180         *
 * O         1      1.09185              0.50069             -0.43871         *
 * O         2      0.98409             -0.67158             -0.34673         *
 * O         3      0.87926              0.43375             -0.56790         *
 * O         4     -0.89467              0.25117             -1.35622         *
 * Al        1      0.05003              0.15848             -0.16476         *
 * Al        2     -0.14656             -0.03420             -0.29078         *
 * Si        1     -0.10104              0.06376             -0.27592         *
 * Si        2      0.15864             -0.30338              2.49820         *
 * Te        1     -0.08272             -0.11246             -0.17698         *
 * Te        2     -0.11445              0.10473              0.11966         *
 * Te        3     -0.29397             -0.18449              0.33575         *
 * Te        4     -0.01315             -0.01299              0.22120         *
 * Te        5     -0.13010              0.02424              0.09721         *
 * Te        6      0.17533              0.00009              0.19315         *
 *                                                                            *
 ******************************************************************************
 DI: finished iteration   5  with energy= -3.44016744E+003 eV
  
 +-----------+-----------------+-----------------+------------+-----+ <-- DI
 | Parameter |      value      |    tolerance    |    units   | OK? | <-- DI
 +-----------+-----------------+-----------------+------------+-----+ <-- DI
 |  dE/ion   |   3.178880E-002 |   2.000000E-005 |         eV | No  | <-- DI
 |  |F|max   |   2.521547E+000 |   5.000000E-002 |       eV/A | No  | <-- DI
 |  |dR|max  |   3.059445E-001 |   2.000000E-003 |          A | No  | <-- DI
 +-----------+-----------------+-----------------+------------+-----+ <-- DI
  

================================================================================
 Starting DI iteration    6 ...
================================================================================

--------------------------------------------------------------------------------
 DI: structure has been updated on iteration   6
--------------------------------------------------------------------------------
 
                           -------------------------------
                                     Cell Contents
                           -------------------------------
 
            xxxxxxxxxxxxxxxxxxxxxxxxxxxxxxxxxxxxxxxxxxxxxxxxxxxxxxxxxxxx
            x  Element    Atom        Fractional coordinates of atoms  x
            x            Number           u          v          w      x
            x----------------------------------------------------------x
            x  H            1         0.087142   1.032020   0.441089   x
            x  H            2        -0.041764   0.577524   0.464092   x
            x  H            3         0.388787   0.870919   0.412911   x
            x  H            4         1.383230   1.369383   0.459628   x
            x  O            1         0.543616   0.983960   0.405963   x
            x  O            2         0.038250   0.556166   0.411421   x
            x  O            3         0.474963   0.468632   0.408647   x
            x  O            4        -0.012968   0.983672   0.387127   x
            x  Al           1         0.683288   0.347045   0.136743   x
            x  Al           2         0.346335   0.673750   0.128225   x
            x  Si           1         0.011866   0.006377   0.083551   x
            x  Si           2         0.013558   0.009303   0.260056   x
            x  Te           1         0.026369  -0.362434   0.268918   x
            x  Te           2         0.381799   0.385751   0.267947   x
            x  Te           3        -0.367827   0.000495   0.266906   x
            x  Te           4        -0.319162  -0.329118   0.008473   x
            x  Te           5         0.004702   0.338095   0.008850   x
            x  Te           6         0.355172   0.018550   0.011171   x
            xxxxxxxxxxxxxxxxxxxxxxxxxxxxxxxxxxxxxxxxxxxxxxxxxxxxxxxxxxxx
 
 
------------------------------------------------------------------------ <-- SCF
SCF loop      Energy           Fermi           Energy gain       Timer   <-- SCF
                               energy          per atom          (sec)   <-- SCF
------------------------------------------------------------------------ <-- SCF
Initial  -3.37609747E+003  0.00000000E+000                        41.38  <-- SCF
      1  -3.43139287E+003 -1.40171266E+000   3.07196657E+000      41.69  <-- SCF
      2  -3.44052691E+003 -9.23800468E-001   5.07446999E-001      41.95  <-- SCF
      3  -3.44056228E+003 -9.43633188E-001   1.96486430E-003      42.44  <-- SCF
      4  -3.44059112E+003 -9.16263769E-001   1.60202167E-003      42.80  <-- SCF
      5  -3.44059457E+003 -9.24124094E-001   1.91730953E-004      43.23  <-- SCF
      6  -3.44059608E+003 -9.28442673E-001   8.39707569E-005      43.66  <-- SCF
      7  -3.44059639E+003 -9.29123534E-001   1.70211615E-005      44.08  <-- SCF
      8  -3.44059683E+003 -9.31513730E-001   2.46201876E-005      44.39  <-- SCF
      9  -3.44059707E+003 -9.32958905E-001   1.34776016E-005      44.66  <-- SCF
     10  -3.44059735E+003 -9.35199149E-001   1.54015236E-005      45.02  <-- SCF
     11  -3.44059758E+003 -9.37710696E-001   1.30775343E-005      45.31  <-- SCF
     12  -3.44059794E+003 -9.41268704E-001   1.96066798E-005      45.64  <-- SCF
     13  -3.44059820E+003 -9.43776479E-001   1.47287531E-005      45.94  <-- SCF
     14  -3.44059830E+003 -9.45115932E-001   5.25603975E-006      46.25  <-- SCF
     15  -3.44059831E+003 -9.45666614E-001   8.36390036E-007      46.56  <-- SCF
     16  -3.44059832E+003 -9.45821855E-001   2.38914321E-007      46.83  <-- SCF
------------------------------------------------------------------------ <-- SCF
 
Final energy, E             =  -3440.565005926     eV
Final free energy (E-TS)    =  -3440.598315525     eV
(energies not corrected for finite basis set)
 
NB est. 0K energy (E-0.5TS)      =  -3440.581660726     eV
 
 
 *********************************** Forces ***********************************
 *                                                                            *
 *                        Cartesian components (eV/A)                         *
 * -------------------------------------------------------------------------- *
 *                   x                    y                    z              *
 *                                                                            *
 * H         1      0.85041              0.01989              0.40058         *
 * H         2     -0.81751              0.60760              0.18153         *
 * H         3     -0.79782             -0.57341             -0.04210         *
 * H         4     -0.66773             -0.34601              0.34945         *
 * O         1      0.95517              0.56090             -0.22552         *
 * O         2      0.83892             -0.56288             -0.17724         *
 * O         3      0.94054              0.35936             -0.46337         *
 * O         4     -1.04698              0.19483             -1.15604         *
 * Al        1      0.02440              0.17826             -0.24135         *
 * Al        2     -0.12227             -0.04503             -0.38470         *
 * Si        1     -0.09142              0.05776             -0.24643         *
 * Si        2      0.21055             -0.23449              1.89844         *
 * Te        1     -0.06358             -0.02859             -0.36549         *
 * Te        2     -0.21261              0.06956             -0.16285         *
 * Te        3     -0.00370             -0.26990              0.03453         *
 * Te        4     -0.06079             -0.07547              0.26151         *
 * Te        5     -0.16306              0.10619              0.14308         *
 * Te        6      0.22746             -0.01856              0.19598         *
 *                                                                            *
 ******************************************************************************
 DI: finished iteration   6  with energy= -3.44059832E+003 eV
  
 +-----------+-----------------+-----------------+------------+-----+ <-- DI
 | Parameter |      value      |    tolerance    |    units   | OK? | <-- DI
 +-----------+-----------------+-----------------+------------+-----+ <-- DI
 |  dE/ion   |   2.393731E-002 |   2.000000E-005 |         eV | No  | <-- DI
 |  |F|max   |   1.924418E+000 |   5.000000E-002 |       eV/A | No  | <-- DI
 |  |dR|max  |   2.978816E-001 |   2.000000E-003 |          A | No  | <-- DI
 +-----------+-----------------+-----------------+------------+-----+ <-- DI
  

================================================================================
 Starting DI iteration    7 ...
================================================================================

--------------------------------------------------------------------------------
 DI: structure has been updated on iteration   7
--------------------------------------------------------------------------------
 
                           -------------------------------
                                     Cell Contents
                           -------------------------------
 
            xxxxxxxxxxxxxxxxxxxxxxxxxxxxxxxxxxxxxxxxxxxxxxxxxxxxxxxxxxxx
            x  Element    Atom        Fractional coordinates of atoms  x
            x            Number           u          v          w      x
            x----------------------------------------------------------x
            x  H            1         0.107147   1.047255   0.442862   x
            x  H            2        -0.066122   0.574111   0.455722   x
            x  H            3         0.371298   0.854978   0.401418   x
            x  H            4         1.401762   1.379182   0.454906   x
            x  O            1         0.525712   0.974453   0.402129   x
            x  O            2         0.026134   0.547181   0.411164   x
            x  O            3         0.496671   0.481767   0.405403   x
            x  O            4        -0.006088   0.990340   0.393993   x
            x  Al           1         0.683772   0.346473   0.137414   x
            x  Al           2         0.345505   0.672084   0.127216   x
            x  Si           1         0.012460   0.005414   0.090962   x
            x  Si           2         0.015418   0.010306   0.269283   x
            x  Te           1         0.027885  -0.363915   0.269195   x
            x  Te           2         0.384504   0.388930   0.268250   x
            x  Te           3        -0.369668  -0.002971   0.266775   x
            x  Te           4        -0.313894  -0.325813   0.010935   x
            x  Te           5         0.002338   0.330998   0.010737   x
            x  Te           6         0.352523   0.019322   0.013355   x
            xxxxxxxxxxxxxxxxxxxxxxxxxxxxxxxxxxxxxxxxxxxxxxxxxxxxxxxxxxxx
 
 
------------------------------------------------------------------------ <-- SCF
SCF loop      Energy           Fermi           Energy gain       Timer   <-- SCF
                               energy          per atom          (sec)   <-- SCF
------------------------------------------------------------------------ <-- SCF
Initial  -3.38029233E+003  0.00000000E+000                        47.09  <-- SCF
      1  -3.43223248E+003 -1.47329865E+000   2.88556382E+000      47.42  <-- SCF
      2  -3.44082993E+003 -8.73778881E-001   4.77636251E-001      47.72  <-- SCF
      3  -3.44085497E+003 -8.86127357E-001   1.39132730E-003      48.16  <-- SCF
      4  -3.44088571E+003 -8.67503765E-001   1.70773216E-003      48.52  <-- SCF
      5  -3.44088971E+003 -8.70799797E-001   2.22248440E-004      48.95  <-- SCF
      6  -3.44089049E+003 -8.76178720E-001   4.31167775E-005      49.36  <-- SCF
      7  -3.44089099E+003 -8.76956240E-001   2.78793148E-005      49.73  <-- SCF
      8  -3.44089152E+003 -8.79097398E-001   2.96995977E-005      50.03  <-- SCF
      9  -3.44089184E+003 -8.80985089E-001   1.76192056E-005      50.34  <-- SCF
     10  -3.44089216E+003 -8.83950367E-001   1.78789992E-005      50.64  <-- SCF
     11  -3.44089235E+003 -8.86104703E-001   1.03708964E-005      50.95  <-- SCF
     12  -3.44089272E+003 -8.90184003E-001   2.08186413E-005      51.25  <-- SCF
     13  -3.44089285E+003 -8.91437725E-001   6.79670143E-006      51.56  <-- SCF
     14  -3.44089294E+003 -8.92599873E-001   4.90940384E-006      51.83  <-- SCF
     15  -3.44089295E+003 -8.93127001E-001   1.01184325E-006      52.12  <-- SCF
     16  -3.44089296E+003 -8.93139130E-001   2.48762850E-007      52.39  <-- SCF
------------------------------------------------------------------------ <-- SCF
 
Final energy, E             =  -3440.871710500     eV
Final free energy (E-TS)    =  -3440.892958145     eV
(energies not corrected for finite basis set)
 
NB est. 0K energy (E-0.5TS)      =  -3440.882334322     eV
 
 
 *********************************** Forces ***********************************
 *                                                                            *
 *                        Cartesian components (eV/A)                         *
 * -------------------------------------------------------------------------- *
 *                   x                    y                    z              *
 *                                                                            *
 * H         1      0.77234             -0.02099              0.34227         *
 * H         2     -0.67892              0.47403              0.16468         *
 * H         3     -0.57235             -0.48106              0.19228         *
 * H         4     -0.49597             -0.25262              0.44018         *
 * O         1      0.53711              0.55158             -0.00958         *
 * O         2      0.58847             -0.41433             -0.05349         *
 * O         3      0.82904              0.27093             -0.17242         *
 * O         4     -1.01976              0.09681             -0.57110         *
 * Al        1     -0.01229              0.18556             -0.29890         *
 * Al        2     -0.07621             -0.05842             -0.49978         *
 * Si        1     -0.05195              0.06100             -0.23443         *
 * Si        2      0.23376             -0.16243              1.04005         *
 * Te        1      0.03813              0.00084             -0.37791         *
 * Te        2     -0.33878              0.07036             -0.44485         *
 * Te        3      0.26907             -0.33646             -0.16302         *
 * Te        4     -0.10744             -0.16384              0.27265         *
 * Te        5     -0.20056              0.19597              0.18814         *
 * Te        6      0.28630             -0.01693              0.18523         *
 *                                                                            *
 ******************************************************************************
 DI: finished iteration   7  with energy= -3.44089296E+003 eV
  
 +-----------+-----------------+-----------------+------------+-----+ <-- DI
 | Parameter |      value      |    tolerance    |    units   | OK? | <-- DI
 +-----------+-----------------+-----------------+------------+-----+ <-- DI
 |  dE/ion   |   1.636903E-002 |   2.000000E-005 |         eV | No  | <-- DI
 |  |F|max   |   1.172791E+000 |   5.000000E-002 |       eV/A | No  | <-- DI
 |  |dR|max  |   1.944996E-001 |   2.000000E-003 |          A | No  | <-- DI
 +-----------+-----------------+-----------------+------------+-----+ <-- DI
  

================================================================================
 Starting DI iteration    8 ...
================================================================================

--------------------------------------------------------------------------------
 DI: structure has been updated on iteration   8
--------------------------------------------------------------------------------
 
                           -------------------------------
                                     Cell Contents
                           -------------------------------
 
            xxxxxxxxxxxxxxxxxxxxxxxxxxxxxxxxxxxxxxxxxxxxxxxxxxxxxxxxxxxx
            x  Element    Atom        Fractional coordinates of atoms  x
            x            Number           u          v          w      x
            x----------------------------------------------------------x
            x  H            1         0.122300   1.055072   0.444658   x
            x  H            2        -0.097529   0.568320   0.444638   x
            x  H            3         0.362613   0.849872   0.396071   x
            x  H            4         1.426201   1.392191   0.451000   x
            x  O            1         0.515866   0.974262   0.399218   x
            x  O            2         0.005278   0.535274   0.410110   x
            x  O            3         0.521656   0.495155   0.401155   x
            x  O            4        -0.002737   0.991566   0.400945   x
            x  Al           1         0.683202   0.344909   0.137902   x
            x  Al           2         0.344909   0.670225   0.125699   x
            x  Si           1         0.013218   0.004550   0.097798   x
            x  Si           2         0.017254   0.010116   0.278124   x
            x  Te           1         0.029063  -0.365762   0.268724   x
            x  Te           2         0.385759   0.390995   0.268171   x
            x  Te           3        -0.370170  -0.006919   0.266475   x
            x  Te           4        -0.308588  -0.323386   0.013305   x
            x  Te           5        -0.000930   0.323865   0.012605   x
            x  Te           6         0.349992   0.019785   0.015121   x
            xxxxxxxxxxxxxxxxxxxxxxxxxxxxxxxxxxxxxxxxxxxxxxxxxxxxxxxxxxxx
 
 
------------------------------------------------------------------------ <-- SCF
SCF loop      Energy           Fermi           Energy gain       Timer   <-- SCF
                               energy          per atom          (sec)   <-- SCF
------------------------------------------------------------------------ <-- SCF
Initial  -3.37041732E+003  0.00000000E+000                        52.64  <-- SCF
      1  -3.43182753E+003 -1.20301452E+000   3.41167860E+000      52.98  <-- SCF
      2  -3.44101490E+003 -8.38762662E-001   5.10409300E-001      53.25  <-- SCF
      3  -3.44104974E+003 -8.51753254E-001   1.93550586E-003      53.72  <-- SCF
      4  -3.44107976E+003 -8.27469017E-001   1.66769466E-003      54.09  <-- SCF
      5  -3.44108545E+003 -8.35896729E-001   3.16598311E-004      54.50  <-- SCF
      6  -3.44108643E+003 -8.39958399E-001   5.43996823E-005      54.94  <-- SCF
      7  -3.44108703E+003 -8.41490708E-001   3.32389178E-005      55.30  <-- SCF
      8  -3.44108755E+003 -8.43137383E-001   2.86593975E-005      55.58  <-- SCF
      9  -3.44108785E+003 -8.44624469E-001   1.65686317E-005      55.86  <-- SCF
     10  -3.44108814E+003 -8.46735488E-001   1.64409115E-005      56.16  <-- SCF
     11  -3.44108830E+003 -8.48692400E-001   9.00085804E-006      56.44  <-- SCF
     12  -3.44108862E+003 -8.52470078E-001   1.73526174E-005      56.72  <-- SCF
     13  -3.44108873E+003 -8.54167949E-001   6.29476463E-006      57.03  <-- SCF
     14  -3.44108883E+003 -8.54933974E-001   5.42265874E-006      57.34  <-- SCF
     15  -3.44108886E+003 -8.55575025E-001   1.76035937E-006      57.61  <-- SCF
     16  -3.44108887E+003 -8.55594675E-001   5.90317437E-007      57.88  <-- SCF
     17  -3.44108887E+003 -8.55651015E-001   9.49347894E-008      58.19  <-- SCF
------------------------------------------------------------------------ <-- SCF
 
Final energy, E             =  -3441.081886397     eV
Final free energy (E-TS)    =  -3441.088871367     eV
(energies not corrected for finite basis set)
 
NB est. 0K energy (E-0.5TS)      =  -3441.085378882     eV
 
 
 *********************************** Forces ***********************************
 *                                                                            *
 *                        Cartesian components (eV/A)                         *
 * -------------------------------------------------------------------------- *
 *                   x                    y                    z              *
 *                                                                            *
 * H         1      0.49464             -0.05160              0.21861         *
 * H         2     -0.49669              0.23109              0.14698         *
 * H         3     -0.29318             -0.35365              0.26479         *
 * H         4     -0.23947             -0.11242              0.39546         *
 * O         1      0.21102              0.44074              0.06395         *
 * O         2      0.26986             -0.07923             -0.06040         *
 * O         3      0.65866              0.09135              0.16895         *
 * O         4     -0.68415              0.06263              0.06712         *
 * Al        1     -0.04162              0.17055             -0.32112         *
 * Al        2     -0.05254             -0.08413             -0.61084         *
[...]
 *                   x                    y                    z              *
 *                                                                            *
 * H         1     -0.00256              0.00128              0.00243         *
 * H         2      0.00150              0.00232             -0.00488         *
 * H         3     -0.00069             -0.00101              0.00111         *
 * H         4     -0.00053              0.00077              0.00241         *
 * O         1      0.00765              0.00274             -0.00636         *
 * O         2      0.00053             -0.00592              0.00112         *
 * O         3     -0.00017             -0.00010             -0.00648         *
 * O         4     -0.00336              0.00160             -0.00217         *
 * Al        1      0.00481              0.00041              0.01006         *
 * Al        2     -0.00374              0.00421              0.00307         *
 * Si        1     -0.00728              0.00610             -0.00373         *
 * Si        2      0.00634             -0.00275              0.00388         *
 * Te        1     -0.00225             -0.00063             -0.00332         *
 * Te        2     -0.00015             -0.00719              0.00699         *
 * Te        3     -0.00617              0.00043              0.00303         *
 * Te        4      0.00319             -0.00425             -0.00043         *
 * Te        5      0.00017             -0.00008              0.00447         *
 * Te        6      0.00272              0.00207             -0.01121         *
 *                                                                            *
 ******************************************************************************
 DI: finished iteration 131  with energy= -3.44338397E+003 eV
  
 +-----------+-----------------+-----------------+------------+-----+ <-- DI
 | Parameter |      value      |    tolerance    |    units   | OK? | <-- DI
 +-----------+-----------------+-----------------+------------+-----+ <-- DI
 |  dE/ion   |   4.174546E-006 |   2.000000E-005 |         eV | Yes | <-- DI
 |  |F|max   |   1.171669E-002 |   5.000000E-002 |       eV/A | Yes | <-- DI
 |  |dR|max  |   1.930961E-002 |   2.000000E-003 |          A | No  | <-- DI
 +-----------+-----------------+-----------------+------------+-----+ <-- DI
  

================================================================================
 Starting DI iteration  132 ...
================================================================================
**WARNING** Magnitude of eigenvalue  51 too large. Replaced by    25.000000

--------------------------------------------------------------------------------
 DI: structure has been updated on iteration 132
--------------------------------------------------------------------------------
 
                           -------------------------------
                                     Cell Contents
                           -------------------------------
 
            xxxxxxxxxxxxxxxxxxxxxxxxxxxxxxxxxxxxxxxxxxxxxxxxxxxxxxxxxxxx
            x  Element    Atom        Fractional coordinates of atoms  x
            x            Number           u          v          w      x
            x----------------------------------------------------------x
            x  H            1        -0.011847   0.894044   0.428213   x
            x  H            2        -0.124168   0.487255   0.472125   x
            x  H            3         0.339500   0.859066   0.380714   x
            x  H            4         1.641412   1.283208   0.483248   x
            x  O            1         0.485971   1.013875   0.373688   x
            x  O            2         0.108118   0.650577   0.376426   x
            x  O            3         0.733128   0.436284   0.505608   x
            x  O            4        -0.029058   1.010733   0.395677   x
            x  Al           1         0.617456   0.349665   0.126787   x
            x  Al           2         0.314441   0.677932   0.124010   x
            x  Si           1        -0.018267   0.033633   0.090071   x
            x  Si           2         0.006981   0.039731   0.274334   x
            x  Te           1         0.007402  -0.331893   0.251507   x
            x  Te           2         0.368180   0.410125   0.264530   x
            x  Te           3        -0.371864   0.030012   0.251245   x
            x  Te           4        -0.351624  -0.306016   0.010324   x
            x  Te           5        -0.032085   0.364714   0.013186   x
            x  Te           6         0.313680   0.027148   0.010024   x
            xxxxxxxxxxxxxxxxxxxxxxxxxxxxxxxxxxxxxxxxxxxxxxxxxxxxxxxxxxxx
 
 
------------------------------------------------------------------------ <-- SCF
SCF loop      Energy           Fermi           Energy gain       Timer   <-- SCF
                               energy          per atom          (sec)   <-- SCF
------------------------------------------------------------------------ <-- SCF
Initial  -3.44337408E+003  0.00000000E+000                       470.14  <-- SCF
      1  -3.44338395E+003 -1.49063393E+000   5.48439915E-004     470.41  <-- SCF
      2  -3.44338399E+003 -1.49063408E+000   1.84623947E-006     470.67  <-- SCF
      3  -3.44338395E+003 -1.49056804E+000  -2.00280627E-006     470.92  <-- SCF
      4  -3.44338399E+003 -1.49037990E+000   1.95735038E-006     471.14  <-- SCF
      5  -3.44338399E+003 -1.49030256E+000   8.02216759E-008     471.34  <-- SCF
      6  -3.44338399E+003 -1.49010263E+000   6.19934649E-008     471.56  <-- SCF
------------------------------------------------------------------------ <-- SCF
 
Final energy, E             =  -3443.383989675     eV
Final free energy (E-TS)    =  -3443.383989675     eV
(energies not corrected for finite basis set)
 
NB est. 0K energy (E-0.5TS)      =  -3443.383989675     eV
 
 
 *********************************** Forces ***********************************
 *                                                                            *
 *                        Cartesian components (eV/A)                         *
 * -------------------------------------------------------------------------- *
 *                   x                    y                    z              *
 *                                                                            *
 * H         1     -0.00166              0.00086              0.00187         *
 * H         2     -0.00434              0.00189             -0.00325         *
 * H         3      0.00145             -0.00027              0.00139         *
 * H         4      0.00053             -0.00030              0.00008         *
 * O         1      0.00356              0.00011             -0.00127         *
 * O         2     -0.00577             -0.00676              0.00471         *
 * O         3      0.00514              0.00330             -0.01114         *
 * O         4      0.00007              0.00466             -0.00238         *
 * Al        1      0.00494              0.00080              0.00846         *
 * Al        2     -0.00369              0.00284              0.00205         *
 * Si        1     -0.00499              0.00552             -0.00402         *
 * Si        2      0.00525             -0.00426              0.00457         *
 * Te        1     -0.00334              0.00019             -0.00362         *
 * Te        2      0.00112             -0.00673              0.00701         *
 * Te        3     -0.00392             -0.00038              0.00203         *
 * Te        4      0.00272             -0.00366             -0.00015         *
 * Te        5      0.00022             -0.00121              0.00415         *
 * Te        6      0.00270              0.00339             -0.01049         *
 *                                                                            *
 ******************************************************************************
 DI: finished iteration 132  with energy= -3.44338399E+003 eV
  
 +-----------+-----------------+-----------------+------------+-----+ <-- DI
 | Parameter |      value      |    tolerance    |    units   | OK? | <-- DI
 +-----------+-----------------+-----------------+------------+-----+ <-- DI
 |  dE/ion   |   8.695497E-007 |   2.000000E-005 |         eV | Yes | <-- DI
 |  |F|max   |   1.270585E-002 |   5.000000E-002 |       eV/A | Yes | <-- DI
 |  |dR|max  |   1.960688E-003 |   2.000000E-003 |          A | Yes | <-- DI
 +-----------+-----------------+-----------------+------------+-----+ <-- DI
  
 DI: Geometry optimization completed successfully.

================================================================================
 DI: Final Configuration:
================================================================================
 
                           -------------------------------
                                     Cell Contents
                           -------------------------------
 
            xxxxxxxxxxxxxxxxxxxxxxxxxxxxxxxxxxxxxxxxxxxxxxxxxxxxxxxxxxxx
            x  Element    Atom        Fractional coordinates of atoms  x
            x            Number           u          v          w      x
            x----------------------------------------------------------x
            x  H            1        -0.011847   0.894044   0.428213   x
            x  H            2        -0.124168   0.487255   0.472125   x
            x  H            3         0.339500   0.859066   0.380714   x
            x  H            4         1.641412   1.283208   0.483248   x
            x  O            1         0.485971   1.013875   0.373688   x
            x  O            2         0.108118   0.650577   0.376426   x
            x  O            3         0.733128   0.436284   0.505608   x
            x  O            4        -0.029058   1.010733   0.395677   x
            x  Al           1         0.617456   0.349665   0.126787   x
            x  Al           2         0.314441   0.677932   0.124010   x
            x  Si           1        -0.018267   0.033633   0.090071   x
            x  Si           2         0.006981   0.039731   0.274334   x
            x  Te           1         0.007402  -0.331893   0.251507   x
            x  Te           2         0.368180   0.410125   0.264530   x
            x  Te           3        -0.371864   0.030012   0.251245   x
            x  Te           4        -0.351624  -0.306016   0.010324   x
            x  Te           5        -0.032085   0.364714   0.013186   x
            x  Te           6         0.313680   0.027148   0.010024   x
            xxxxxxxxxxxxxxxxxxxxxxxxxxxxxxxxxxxxxxxxxxxxxxxxxxxxxxxxxxxx
 
 
 DI: Final Energy     = -3.44338399E+003 eV
 
 *********************************** Forces ***********************************
 *                                                                            *
 *                        Cartesian components (eV/A)                         *
 * -------------------------------------------------------------------------- *
 *                   x                    y                    z              *
 *                                                                            *
 * H         1     -0.00166              0.00086              0.00187         *
 * H         2     -0.00434              0.00189             -0.00325         *
 * H         3      0.00145             -0.00027              0.00139         *
 * H         4      0.00053             -0.00030              0.00008         *
 * O         1      0.00356              0.00011             -0.00127         *
 * O         2     -0.00577             -0.00676              0.00471         *
 * O         3      0.00514              0.00330             -0.01114         *
 * O         4      0.00007              0.00466             -0.00238         *
 * Al        1      0.00494              0.00080              0.00846         *
 * Al        2     -0.00369              0.00284              0.00205         *
 * Si        1     -0.00499              0.00552             -0.00402         *
 * Si        2      0.00525             -0.00426              0.00457         *
 * Te        1     -0.00334              0.00019             -0.00362         *
 * Te        2      0.00112             -0.00673              0.00701         *
 * Te        3     -0.00392             -0.00038              0.00203         *
 * Te        4      0.00272             -0.00366             -0.00015         *
 * Te        5      0.00022             -0.00121              0.00415         *
 * Te        6      0.00270              0.00339             -0.01049         *
 *                                                                            *
 ******************************************************************************
 
 ***************** Stress Tensor *****************
 *                                               *
 *          Cartesian components (GPa)           *
 * --------------------------------------------- *
 *             x             y             z     *
 *                                               *
 *  x     -0.673522     -0.144008      0.013742  *
 *  y     -0.144008     -1.022230      0.000777  *
 *  z      0.013742      0.000777     -0.013233  *
 *                                               *
 *  Pressure:    0.5697                          *
 *                                               *
 *************************************************
 
 Pseudo atomic calculation performed for H 1s1
 
 Converged in 13 iterations to a total energy of -12.4688 eV
 
 
 Pseudo atomic calculation performed for O 2s2 2p4
 
 Converged in 22 iterations to a total energy of -423.8174 eV
 
 
 Pseudo atomic calculation performed for Al 3s2 3p1
 
 Converged in 15 iterations to a total energy of -53.6182 eV
 
 
 Pseudo atomic calculation performed for Si 3s2 3p2
 
 Converged in 15 iterations to a total energy of -101.6421 eV
 
 
 Pseudo atomic calculation performed for Te 5s2 5p4
 
 Converged in 16 iterations to a total energy of -217.5984 eV
 
Charge spilling parameter for spin component 1 = 1.06%
 
     Atomic Populations (Mulliken)
     -----------------------------
Species   Ion     s      p      d      f     Total  Charge (e)
==============================================================
  H        1     0.53   0.00   0.00   0.00   0.53     0.47
  H        2     0.56   0.00   0.00   0.00   0.56     0.44
  H        3     0.61   0.00   0.00   0.00   0.61     0.39
  H        4     0.54   0.00   0.00   0.00   0.54     0.46
  O        1     1.88   5.01   0.00   0.00   6.88    -0.88
  O        2     1.93   4.99   0.00   0.00   6.92    -0.92
  O        3     1.84   5.14   0.00   0.00   6.99    -0.99
  O        4     1.84   5.13   0.00   0.00   6.97    -0.97
  Al       1     1.13   1.83   0.00   0.00   2.96     0.04
  Al       2     1.11   1.85   0.00   0.00   2.96     0.04
  Si       1     1.55   2.46   0.00   0.00   4.01    -0.01
  Si       2     1.25   2.19   0.00   0.00   3.44     0.56
  Te       1     1.56   3.60   0.00   0.00   5.16     0.84
  Te       2     1.85   4.18   0.00   0.00   6.03    -0.03
  Te       3     1.64   3.64   0.00   0.00   5.28     0.72
  Te       4     1.81   4.23   0.00   0.00   6.04    -0.04
  Te       5     1.82   4.23   0.00   0.00   6.05    -0.05
  Te       6     1.84   4.23   0.00   0.00   6.07    -0.07
==============================================================
 
            Bond              Population      Length (A)
============================================================
          H 4 -- O 3               0.58        0.97101
          H 1 -- O 4               0.59        0.97759
          H 2 -- O 3               0.57        0.97780
          H 3 -- O 1               0.49        1.04689
          H 3 -- O 2               0.20        1.52764
          H 2 -- H 4              -0.14        1.53383
          O 4 -- Si 2              0.41        1.66214
          O 2 -- Te 1              0.36        1.85911
          O 1 -- Te 3              0.26        1.90484
          H 2 -- O 2               0.04        1.93030
          H 4 -- O 1               0.01        2.19774
          H 1 -- Si 2             -0.14        2.29323
          H 1 -- O 2               0.04        2.32589
          H 3 -- Te 3             -0.21        2.47090
         Si 1 -- Si 2              0.39        2.50498
         Si 2 -- Te 2              0.50        2.53278
         Si 1 -- Te 6              0.53        2.55929
         Si 1 -- Te 5              0.49        2.56009
          O 1 -- O 2              -0.14        2.56346
         Si 1 -- Te 4              0.43        2.56578
          H 1 -- H 2              -0.00        2.58497
         Si 2 -- Te 1              0.45        2.58901
         Si 2 -- Te 3              0.30        2.60485
          H 1 -- H 3               0.00        2.63820
          H 3 -- Te 1             -0.13        2.65622
         Al 1 -- Te 6              0.51        2.68482
         Al 1 -- Te 2              0.59        2.71236
         Al 2 -- Te 1              0.42        2.71253
         Al 2 -- Te 4              0.45        2.73206
         Al 2 -- Te 5              0.41        2.73872
         Al 1 -- Te 4              0.40        2.77473
         Al 2 -- Te 2              0.39        2.80853
         Al 1 -- Te 3              0.25        2.81118
         Al 1 -- Te 5              0.43        2.82907
          O 2 -- O 3              -0.05        2.85412
         Al 2 -- Te 6              0.34        2.86917
         Al 2 -- Te 3              0.25        2.88588
          H 1 -- Te 1             -0.13        2.90049
          H 1 -- O 3              -0.00        2.94031
          H 3 -- H 4               0.00        2.96117
============================================================
 
All bands spilling parameter for spin component 1 = 2.85%
 
     Hirshfeld Analysis
     ------------------
Species   Ion     Hirshfeld Charge (e)  Spin (hbar/2)
===================================================
  H        1                 0.15        0.00
  H        2                 0.09        0.00
  H        3                 0.08        0.00
  H        4                 0.11        0.00
  O        1                -0.23        0.00
  O        2                -0.28        0.00
  O        3                -0.33        0.00
  O        4                -0.28        0.00
  Al       1                 0.09        0.00
  Al       2                 0.08        0.00
  Si       1                 0.02        0.00
  Si       2                 0.14        0.00
  Te       1                 0.21        0.00
  Te       2                 0.02        0.00
  Te       3                 0.23        0.00
  Te       4                -0.03        0.00
  Te       5                -0.03        0.00
  Te       6                -0.03        0.00
===================================================
 

Writing analysis data to AlSiTe3__0_0_1_.castep_bin

Writing model to AlSiTe3__0_0_1_.check
 
 A BibTeX formatted list of references used in this run has been written to 
 AlSiTe3__0_0_1_.bib
 
Initialisation time =      0.80 s
Calculation time    =    471.81 s
Finalisation time   =      0.22 s
Total time          =    472.83 s
  
Overall parallel efficiency rating: Satisfactory (62%)                          
  
Data was distributed by:-
G-vector (24-way); efficiency rating: Satisfactory (68%)                        
k-point (2-way); efficiency rating: Very good (88%)                             
  
Parallel notes:
1) Calculation only took 472.8 s, so efficiency estimates may be inaccurate.    
