 Job started on host DESKTOP-1C867QN
 at Wed May 28 00:51:05 2025

 +-------------------------------------------------+
 |                                                 |
 |      CCC   AA    SSS  TTTTT  EEEEE  PPPP        |
 |     C     A  A  S       T    E      P   P       |
 |     C     AAAA   SS     T    EEE    PPPP        |
 |     C     A  A     S    T    E      P           |
 |      CCC  A  A  SSS     T    EEEEE  P           |
 |                                                 |
 +-------------------------------------------------+
 |                                                 |
 | Materials Studio CASTEP version 2017            |
 | Ab Initio Total Energy Program                  |
 |                                                 |
 | Authors:                                        |
 | M. Segall, M. Probert, C. Pickard, P. Hasnip,   |
 | S. Clark, K. Refson, J. R. Yates, M. Payne      |
 |                                                 |
 | Contributors:                                   |
 | P. Lindan, P. Haynes, J. White, V. Milman,      |
 | N. Govind, M. Gibson, P. Tulip, V. Cocula,      |
 | B. Montanari, D. Quigley, M. Glover,            |
 | L. Bernasconi, A. Perlov, M. Plummer,           |
 | E. McNellis, J. Meyer, J. Gale, D. Jochym       |
 | J. Aarons, B. Walker, R. Gillen, D. Jones       |
 | T. Green, I. J. Bush, C. J. Armstrong,          |
 | E. J. Higgins, E. L. Brown, M. S. McFly         |
 |                                                 |
 | Copyright (c) 2000 - 2016                       |
 |                                                 |
 | Please cite                                     |
 |                                                 |
 |     "First principles methods using CASTEP"     |
 |                                                 |
 |         Zeitschrift fuer Kristallographie       |
 |           220(5-6) pp. 567-570 (2005)           |
 |                                                 |
 | S. J. Clark, M. D. Segall, C. J. Pickard,       |
 | P. J. Hasnip, M. J. Probert, K. Refson,         |
 | M. C. Payne                                     |
 |                                                 |
 |       in all publications arising from          |
 |              your use of CASTEP                 |
 |                                                 |
 +-------------------------------------------------+
 
 
 This version was compiled for x86_64-windows-msvc2008 on May 05 2016
 Intel(R) Math Kernel Library Version 11.1.2 
 Fundamental constants values: CODATA 2010
 
License checkout of MS_castep successful
 
 
 Atomic calculation performed for Si: 1s2 2s2 2p6 3s2 3p2
 
 Converged in 54 iterations to an ae energy of -7886.857 eV
 
 Identity difference: 2.03E-02
 
   ============================================================                
   | Pseudopotential Report - Date of generation 28-05-2025   |                
   ------------------------------------------------------------                
   | Element: Si Ionic charge:  4.00 Level of theory: PBE     |                
   | Atomic Solver: Koelling-Harmon                           |                
   |                                                          |                
   |               Reference Electronic Structure             |                
   |         Orbital         Occupation         Energy        |                
   |            3s              2.000           -0.397        |                
   |            3p              2.000           -0.150        |                
   |                                                          |                
   |                 Pseudopotential Definition               |                
   |        Beta     l      e      Rc     scheme   norm       |                
   |          1      0   -0.397   1.599     qc      1         |                
   |          2      2    0.000   1.599     qc      1         |                
   |         loc     1   -0.150   1.599     qc      1         |                
   |                                                          |                
   | No charge augmentation                                   |                
   | Partial core correction Rc = 1.117                       |                
   ------------------------------------------------------------                
   | "1|1.6|6|7|9|30N:31L:32N[]"                              |                
   ------------------------------------------------------------                
   |      Author: Chris J. Pickard, Cambridge University      |                
   ============================================================                
 
 Doing a self consistent calculation for the test configuration
 
 Atomic calculation performed for Si: 1s2 2s2 2p6 3s2 3p2
 
 Converged in 54 iterations to an ae energy of -7886.857 eV
 
 ---------------------------------------
 AE eigenvalue nl 10 =      -65.63192903
 AE eigenvalue nl 20 =       -5.12654326
 AE eigenvalue nl 21 =       -3.51173659
 AE eigenvalue nl 30 =       -0.39736430
 AE eigenvalue nl 31 =       -0.14998156
 ---------------------------------------
 PS eigenvalue nl 30 =       -0.39735312
 PS eigenvalue nl 31 =       -0.14996116
 ---------------------------------------
 Maximum eigenvalue error:   2.04E-05
 
 Derived cutoff energies: C=   2 M=   6 F=   6 E=   8
 
 
 ***************************************
 
 Atomic calculation performed for Sc: 1s2 2s2 2p6 3s2 3p6 3d1 4s2
 
 Converged in 74 iterations to an ae energy of -20791.021 eV
 
 Identity difference: 1.25E-02
 
   ============================================================                
   | Pseudopotential Report - Date of generation 28-05-2025   |                
   ------------------------------------------------------------                
   | Element: Sc Ionic charge: 11.00 Level of theory: PBE     |                
   | Atomic Solver: Koelling-Harmon                           |                
   |                                                          |                
   |               Reference Electronic Structure             |                
   |         Orbital         Occupation         Energy        |                
   |            3s              2.000           -2.023        |                
   |            3p              6.000           -1.236        |                
   |            4s              2.000           -0.154        |                
   |            3d              1.000           -0.119        |                
   |                                                          |                
   |                 Pseudopotential Definition               |                
   |        Beta     l      e      Rc     scheme   norm       |                
   |          1      0   -2.023   1.802     qc      1         |                
   |          2      0   -0.154   1.802     qc      1         |                
   |          3      1   -1.236   1.802     qc      1         |                
   |          4      2   -0.119   1.802     qc      1         |                
   |         loc     3    0.000   1.802     pn      0         |                
   |                                                          |                
   | No charge augmentation                                   |                
   | Partial core correction Rc = 1.259                       |                
   ------------------------------------------------------------                
   | "3|1.8|13|16|19|30N:40N:31N:32N(qc=7)[]"                 |                
   ------------------------------------------------------------                
   |      Author: Chris J. Pickard, Cambridge University      |                
   ============================================================                
 
 Doing a self consistent calculation for the test configuration
 
 Atomic calculation performed for Sc: 1s2 2s2 2p6 3s2 3p6 3d1 4s2
 
 Converged in 74 iterations to an ae energy of -20791.021 eV
 
 ---------------------------------------
 AE eigenvalue nl 10 =     -161.59654852
 AE eigenvalue nl 20 =      -17.43125171
 AE eigenvalue nl 21 =      -14.26828408
 AE eigenvalue nl 30 =       -2.02264646
 AE eigenvalue nl 31 =       -1.23568058
 AE eigenvalue nl 32 =       -0.11882454
 AE eigenvalue nl 40 =       -0.15372733
 ---------------------------------------
 PS eigenvalue nl 30 =       -2.02279703
 PS eigenvalue nl 31 =       -1.23555522
 PS eigenvalue nl 32 =       -0.11872923
 PS eigenvalue nl 40 =       -0.15369834
 ---------------------------------------
 Maximum eigenvalue error:   1.51E-04
 
 Derived cutoff energies: C=  13 M=  15 F=  18 E=  20
 
 
 ***************************************
 
 Atomic calculation performed for Te:
 1s2 2s2 2p6 3s2 3p6 3d10 4s2 4p6 4d10 5s2 5p4
 
 Converged in 74 iterations to an ae energy of -184887.051 eV
 
 Identity difference: 6.08E-02
 
   ============================================================                
   | Pseudopotential Report - Date of generation 28-05-2025   |                
   ------------------------------------------------------------                
   | Element: Te Ionic charge:  6.00 Level of theory: PBE     |                
   | Atomic Solver: Koelling-Harmon                           |                
   |                                                          |                
   |               Reference Electronic Structure             |                
   |         Orbital         Occupation         Energy        |                
   |            5s              2.000           -0.555        |                
   |            5p              4.000           -0.219        |                
   |                                                          |                
   |                 Pseudopotential Definition               |                
   |        Beta     l      e      Rc     scheme   norm       |                
   |          1      0   -0.555   2.204     qc      1         |                
   |          2      1   -0.219   2.204     qc      1         |                
   |         loc     2    0.000   2.204     pn      0         |                
   |                                                          |                
   | No charge augmentation                                   |                
   | Partial core correction Rc = 1.540                       |                
   ------------------------------------------------------------                
   | "2|2.2|4.8|7.4|9.2|50N:51N[]"                            |                
   ------------------------------------------------------------                
   |      Author: Chris J. Pickard, Cambridge University      |                
   ============================================================                
 
 Doing a self consistent calculation for the test configuration
 
 Atomic calculation performed for Te:
 1s2 2s2 2p6 3s2 3p6 3d10 4s2 4p6 4d10 5s2 5p4
 
 Converged in 74 iterations to an ae energy of -184887.051 eV
 
 ---------------------------------------
 AE eigenvalue nl 10 =    -1162.35227488
 AE eigenvalue nl 20 =     -178.24632272
 AE eigenvalue nl 21 =     -160.00620108
 AE eigenvalue nl 30 =      -35.47173737
 AE eigenvalue nl 31 =      -29.54318713
 AE eigenvalue nl 32 =      -20.58152877
 AE eigenvalue nl 40 =       -6.04112586
 AE eigenvalue nl 41 =       -4.20445800
 AE eigenvalue nl 42 =       -1.53071897
 AE eigenvalue nl 50 =       -0.55522942
 AE eigenvalue nl 51 =       -0.21878005
 ---------------------------------------
 PS eigenvalue nl 50 =       -0.55521954
 PS eigenvalue nl 51 =       -0.21877245
 ---------------------------------------
 Maximum eigenvalue error:   9.88E-06
 
 Derived cutoff energies: C=   3 M=   5 F=   8 E=  10
 
 
 ***************************************
 
 Pseudo atomic calculation performed for Si 3s2 3p2
 
 Converged in 17 iterations to a total energy of -215.5478 eV
 
 
 Pseudo atomic calculation performed for Sc 3s2 3p6 3d1 4s2
 
 Converged in 26 iterations to a total energy of -1272.6953 eV
 
 
 Pseudo atomic calculation performed for Te 5s2 5p4
 
 Converged in 17 iterations to a total energy of -568.4318 eV
 
 Calculation parallelised over 48 processes.
 Data is distributed by G-vector(24-way) and k-point(2-way)

 ************************************ Title ************************************
 CASTEP calculation from Materials Studio

 ***************************** General Parameters ******************************
  
 output verbosity                               : normal  (1)
 write checkpoint data to                       : ScSiTe3.check
 type of calculation                            : geometry optimization
 stress calculation                             : on
 density difference calculation                 : off
 electron localisation func (ELF) calculation   : off
 Hirshfeld analysis                             : off
 unlimited duration calculation
 timing information                             : on
 memory usage estimate                          : on
 write final potential to formatted file        : off
 write final density to formatted file          : off
 write BibTeX reference list                    : on
 write OTFG pseudopotential files               : on
 checkpoint writing                             : both castep_bin and check files
  
 output         length unit                     : A
 output           mass unit                     : amu
 output           time unit                     : ps
 output         charge unit                     : e
 output           spin unit                     : hbar/2
 output         energy unit                     : eV
 output          force unit                     : eV/A
 output       velocity unit                     : A/ps
 output       pressure unit                     : GPa
 output     inv_length unit                     : 1/A
 output      frequency unit                     : cm-1
 output force constant unit                     : eV/A**2
 output         volume unit                     : A**3
 output   IR intensity unit                     : (D/A)**2/amu
 output         dipole unit                     : D
 output         efield unit                     : eV/A/e
 output        entropy unit                     : J/mol/K
  
 wavefunctions paging                           : none
 random number generator seed                   : randomised (5106371)
 data distribution                              : optimal for this architecture
 optimization strategy                          : maximize speed(+++)

 *********************** Exchange-Correlation Parameters ***********************
  
 using functional                               : Perdew Burke Ernzerhof
 relativistic treatment                         : Koelling-Harmon
 DFT+D: Semi-empirical dispersion correction    : off

 ************************* Pseudopotential Parameters **************************
  
 pseudopotential representation                 : reciprocal space
 <beta|phi> representation                      : reciprocal space
 spin-orbit coupling                            : off

 **************************** Basis Set Parameters *****************************
  
 plane wave basis set cut-off                   :   570.0000   eV
 size of standard grid                          :     2.0000
 size of   fine   grid                          :     3.0000
 size of   fine   gmax                          :    36.6942   1/A
 largest prime factor in FFT                    :          5
 finite basis set correction                    : automatic
 number of sample energies                      :          3
           sample  spacing                      :     5.0000   eV

 **************************** Electronic Parameters ****************************
  
 number of  electrons                           :  66.00    
 net charge of system                           :  0.000    
 treating system as non-spin-polarized
 number of bands                                :         33

 ********************* Electronic Minimization Parameters **********************
  
 Method: Treating system as non-metallic,
         and number of  SD  steps               :          1
         and number of  CG  steps               :          4
  
 total energy / atom convergence tol.           : 0.5000E-06   eV
 eigen-energy convergence tolerance             : 0.1515E-06   eV
 max force / atom convergence tol.              : ignored
 convergence tolerance window                   :          3   cycles
 max. number of SCF cycles                      :       9999
 periodic dipole correction                     : NONE

 ************************** Density Mixing Parameters **************************
  
 density-mixing scheme                          : Pulay
 max. length of mixing history                  :         20
 charge density mixing amplitude                : 0.5000    
 cut-off energy for mixing                      :  570.0       eV
 charge density mixing g-vector                 :  1.500       1/A

 ********************** Geometry Optimization Parameters ***********************
  
 optimization method                            : BFGS
 variable cell method                           : fixed basis size
 max. number of steps                           :       9999
 estimated bulk modulus                         :  500.0       GPa
 estimated <frequency>                          :  1668.       cm-1
 geom line minimiser                            : on
 with line minimiser tolerance                  :     0.4000
 total energy convergence tolerance             : 0.5000E-05   eV/atom
        max ionic |force| tolerance             : 0.1000E-01   eV/A
 max ionic |displacement| tolerance             : 0.5000E-03   A
   max |stress component| tolerance             : 0.2000E-01   GPa
 convergence tolerance window                   :          2   steps
 backup results every                           :          5   steps

 *******************************************************************************
  
 
                           -------------------------------
                                      Unit Cell
                           -------------------------------
        Real Lattice(A)                      Reciprocal Lattice(1/A)
   6.1036671  -3.5239539   0.0000000        1.0294115   0.0000000   0.0000000
   0.0000000   7.0479077   0.0000000        0.5147058   0.8914965   0.0000000
   0.0000000   0.0000000   7.9195491        0.0000000   0.0000000   0.7933766
 
                       Lattice parameters(A)       Cell Angles
                    a =    7.047908          alpha =   90.000000
                    b =    7.047908          beta  =   90.000000
                    c =    7.919549          gamma =  120.000000
 
                       Current cell volume =  340.683819       A**3
 
                           -------------------------------
                                     Cell Contents
                           -------------------------------
                         Total number of ions in cell =   10
                      Total number of species in cell =    3
                        Max number of any one species =    6
 
            xxxxxxxxxxxxxxxxxxxxxxxxxxxxxxxxxxxxxxxxxxxxxxxxxxxxxxxxxxxx
            x  Element    Atom        Fractional coordinates of atoms  x
            x            Number           u          v          w      x
            x----------------------------------------------------------x
            x  Si           1         0.000000   0.000000   0.354813   x 
            x  Si           2         0.000000   0.000000  -0.354813   x 
            x  Sc           1         0.666667   0.333333   0.500000   x 
            x  Sc           2        -0.666667  -0.333333  -0.500000   x 
            x  Te           1        -0.000000   0.657145   0.733648   x 
            x  Te           2        -0.657145  -0.657145   0.733648   x 
            x  Te           3         0.657145   0.000000   0.733648   x 
            x  Te           4        -0.657145   0.000000  -0.733648   x 
            x  Te           5         0.657145   0.657145  -0.733648   x 
            x  Te           6        -0.000000  -0.657145  -0.733648   x 
            xxxxxxxxxxxxxxxxxxxxxxxxxxxxxxxxxxxxxxxxxxxxxxxxxxxxxxxxxxxx
 
 
                         No user defined ionic velocities
 
                           -------------------------------
                                   Details of Species
                           -------------------------------
 
                               Mass of species in AMU
                                    Si   28.0849991
                                    Sc   44.9560013
                                    Te  127.5999985
 
                          Electric Quadrupole Moment (Barn)
                                    Si    1.0000000 No Isotope Defined
                                    Sc   -0.2200000 Isotope 45
                                    Te    1.0000000 No Isotope Defined
 
                          Files used for pseudopotentials:
                                    Si 1|1.6|6|7|9|30N:31L:32N[]
                                    Sc 3|1.8|13|16|19|30N:40N:31N:32N(qc=7)[]
                                    Te 2|2.2|4.8|7.4|9.2|50N:51N[]
 
                           -------------------------------
                              k-Points For BZ Sampling
                           -------------------------------
                       MP grid size for SCF calculation is  2  2  2
                            with an offset of   0.250  0.250  0.000
                       Number of kpoints used =             2
 
                           -------------------------------
                               Symmetry and Constraints
                           -------------------------------
 
                      Maximum deviation from symmetry = 0.704227E-14     ANG
 
                      Number of symmetry operations   =          12
         There are no ionic constraints specified or generated for this cell
                      Point group of crystal =    20: D3d, -3m, -3 2/m
                      Space group of crystal =   162: P-31m, -P 3 2
 
             Set iprint > 1 for details on symmetry rotations/translations
 
                         Centre of mass is NOT constrained
 
                         Number of cell constraints= 4
                         Cell constraints are:  1 1 3 0 0 0
 
                         External pressure/stress (GPa)
                          0.00000   0.00000   0.00000
                                    0.00000   0.00000
                                              0.00000
  
+---------------- MEMORY AND SCRATCH DISK ESTIMATES PER PROCESS --------------+
|                                                     Memory          Disk    |
| Baseline code, static data and system overhead        0.0 MB         0.0 MB |
| BLAS internal memory storage                          0.0 MB         0.0 MB |
| Model and support data                               20.9 MB         0.0 MB |
| Electronic energy minimisation requirements           3.5 MB         0.0 MB |
| Force calculation requirements                        4.8 MB         0.0 MB |
| Stress calculation requirements                       5.5 MB         0.0 MB |
|                                               ----------------------------- |
| Approx. total storage required per process           26.4 MB         0.0 MB |
|                                                                             |
| Requirements will fluctuate during execution and may exceed these estimates |
+-----------------------------------------------------------------------------+
Calculating finite basis set correction with  3 cut-off energies.
Calculating total energy with cut-off of  560.000eV.
------------------------------------------------------------------------ <-- SCF
SCF loop      Energy                           Energy gain       Timer   <-- SCF
                                               per atom          (sec)   <-- SCF
------------------------------------------------------------------------ <-- SCF
Initial  -3.93263979E+003                                         29.34  <-- SCF
      1  -6.08914609E+003                    2.15650629E+002      29.62  <-- SCF
      2  -6.41348199E+003                    3.24335906E+001      29.83  <-- SCF
      3  -6.43184236E+003                    1.83603683E+000      30.05  <-- SCF
      4  -6.43300116E+003                    1.15880209E-001      30.67  <-- SCF
      5  -6.43289398E+003                   -1.07185082E-002      31.12  <-- SCF
      6  -6.43288284E+003                   -1.11345289E-003      31.61  <-- SCF
      7  -6.43288187E+003                   -9.77079048E-005      32.12  <-- SCF
      8  -6.43288566E+003                    3.79174900E-004      32.62  <-- SCF
      9  -6.43288608E+003                    4.18646094E-005      33.14  <-- SCF
     10  -6.43288613E+003                    5.51593042E-006      33.59  <-- SCF
     11  -6.43288616E+003                    2.57784900E-006      34.02  <-- SCF
     12  -6.43288616E+003                    5.25267450E-007      34.36  <-- SCF
     13  -6.43288616E+003                    1.04377265E-007      34.70  <-- SCF
     14  -6.43288617E+003                    4.27649804E-008      35.03  <-- SCF
------------------------------------------------------------------------ <-- SCF
 
Final energy =  -6432.886165297     eV
(energy not corrected for finite basis set)
 
Calculating total energy with cut-off of  565.000eV.
------------------------------------------------------------------------ <-- SCF
SCF loop      Energy                           Energy gain       Timer   <-- SCF
                                               per atom          (sec)   <-- SCF
------------------------------------------------------------------------ <-- SCF
Initial  -6.43288617E+003                                         35.45  <-- SCF
      1  -6.43289555E+003                    9.38395363E-004      35.66  <-- SCF
      2  -6.43289555E+003                    1.80478005E-007      36.00  <-- SCF
      3  -6.43289555E+003                    3.16063114E-007      36.33  <-- SCF
      4  -6.43289556E+003                    2.42060437E-007      36.67  <-- SCF
      5  -6.43289556E+003                    5.00539102E-008      37.02  <-- SCF
------------------------------------------------------------------------ <-- SCF
 
Final energy =  -6432.895557275     eV
(energy not corrected for finite basis set)
 
Calculating total energy with cut-off of  570.000eV.
------------------------------------------------------------------------ <-- SCF
SCF loop      Energy                           Energy gain       Timer   <-- SCF
                                               per atom          (sec)   <-- SCF
------------------------------------------------------------------------ <-- SCF
Initial  -6.43289556E+003                                         37.45  <-- SCF
      1  -6.43290363E+003                    8.07358341E-004      37.66  <-- SCF
      2  -6.43290363E+003                    2.77353502E-007      38.00  <-- SCF
      3  -6.43290364E+003                    2.42797481E-007      38.34  <-- SCF
      4  -6.43290364E+003                    1.55739603E-007      38.69  <-- SCF
------------------------------------------------------------------------ <-- SCF
 
Final energy =  -6432.903637688     eV
(energy not corrected for finite basis set)
 
 For future reference: finite basis dEtot/dlog(Ecut) =      -0.966229eV
 Total energy corrected for finite basis set =   -6432.903291 eV
 
+---------------- MEMORY AND SCRATCH DISK ESTIMATES PER PROCESS --------------+
|                                                     Memory          Disk    |
| Model and support data                               31.1 MB         0.0 MB |
| Electronic energy minimisation requirements           3.5 MB         0.0 MB |
| Geometry minimisation requirements                    4.0 MB         0.0 MB |
|                                               ----------------------------- |
| Approx. total storage required per process           38.6 MB         0.0 MB |
|                                                                             |
| Requirements will fluctuate during execution and may exceed these estimates |
+-----------------------------------------------------------------------------+
 
 
 *********************************** Forces ***********************************
 *                                                                            *
 *                        Cartesian components (eV/A)                         *
 * -------------------------------------------------------------------------- *
 *                   x                    y                    z              *
 *                                                                            *
 * Si        1      0.00000              0.00000              0.25953         *
 * Si        2      0.00000             -0.00000             -0.25953         *
 * Sc        1     -0.00000              0.00000              0.00000         *
 * Sc        2      0.00000              0.00000             -0.00000         *
 * Te        1      0.00000             -0.17338              0.12686         *
 * Te        2      0.15015              0.08669              0.12686         *
 * Te        3     -0.15015              0.08669              0.12686         *
 * Te        4      0.15015             -0.08669             -0.12686         *
 * Te        5     -0.15015             -0.08669             -0.12686         *
 * Te        6      0.00000              0.17338             -0.12686         *
 *                                                                            *
 ******************************************************************************
 
 ***************** Stress Tensor *****************
 *                                               *
 *          Cartesian components (GPa)           *
 * --------------------------------------------- *
 *             x             y             z     *
 *                                               *
 *  x     -0.905284      0.000000      0.000000  *
 *  y      0.000000     -0.905284     -0.000000  *
 *  z      0.000000     -0.000000     -0.293104  *
 *                                               *
 *  Pressure:    0.7012                          *
 *                                               *
 *************************************************
 BFGS: finished iteration     0 with enthalpy= -6.43290364E+003 eV
  
 +-----------+-----------------+-----------------+------------+-----+ <-- BFGS
 | Parameter |      value      |    tolerance    |    units   | OK? | <-- BFGS
 +-----------+-----------------+-----------------+------------+-----+ <-- BFGS
 |  dE/ion   |   0.000000E+000 |   5.000000E-006 |         eV | No  | <-- BFGS
 |  |F|max   |   2.595319E-001 |   1.000000E-002 |       eV/A | No  | <-- BFGS
 |  |dR|max  |   0.000000E+000 |   5.000000E-004 |          A | No  | <-- BFGS
 |   Smax    |   9.052844E-001 |   2.000000E-002 |        GPa | No  | <-- BFGS
 +-----------+-----------------+-----------------+------------+-----+ <-- BFGS
  

================================================================================
 Starting BFGS iteration          1 ...
================================================================================
  
 +------------+-------------+-------------+-----------------+ <-- min BFGS
 |    Step    |   lambda    |   F.delta'  |    enthalpy     | <-- min BFGS
 +------------+-------------+-------------+-----------------+ <-- min BFGS
 |  previous  |    0.000000 |    0.120391 |    -6432.903638 | <-- min BFGS
 +------------+-------------+-------------+-----------------+ <-- min BFGS
  

--------------------------------------------------------------------------------
 BFGS: starting iteration         1 with trial guess (lambda=  1.000000)
--------------------------------------------------------------------------------
 
                           -------------------------------
                                      Unit Cell
                           -------------------------------
        Real Lattice(A)              Reciprocal Lattice(1/A)
   6.1073508  -3.5260806   0.0000000        1.0287906  -0.0000000   0.0000000
   0.0000000   7.0521613   0.0000000        0.5143953   0.8909588   0.0000000
   0.0000000   0.0000000   7.9210966        0.0000000   0.0000000   0.7932216
 
                       Lattice parameters(A)       Cell Angles
                    a =    7.052161          alpha =   90.000000
                    b =    7.052161          beta  =   90.000000
                    c =    7.921097          gamma =  120.000000
 
                Current cell volume =  341.161815 A**3
 
                           -------------------------------
                                     Cell Contents
                           -------------------------------
 
            xxxxxxxxxxxxxxxxxxxxxxxxxxxxxxxxxxxxxxxxxxxxxxxxxxxxxxxxxxxx
            x  Element    Atom        Fractional coordinates of atoms  x
            x            Number           u          v          w      x
            x----------------------------------------------------------x
            x  Si           1        -0.000000   0.000000   0.354848   x
            x  Si           2        -0.000000   0.000000  -0.354848   x
            x  Sc           1         0.666667   0.333333   0.500000   x
            x  Sc           2        -0.666667  -0.333333  -0.500000   x
            x  Te           1        -0.000000   0.657118   0.733665   x
            x  Te           2        -0.657118  -0.657118   0.733665   x
            x  Te           3         0.657118   0.000000   0.733665   x
            x  Te           4        -0.657118   0.000000  -0.733665   x
            x  Te           5         0.657118   0.657118  -0.733665   x
            x  Te           6        -0.000000  -0.657118  -0.733665   x
            xxxxxxxxxxxxxxxxxxxxxxxxxxxxxxxxxxxxxxxxxxxxxxxxxxxxxxxxxxxx
 
 
------------------------------------------------------------------------ <-- SCF
SCF loop      Energy                           Energy gain       Timer   <-- SCF
                                               per atom          (sec)   <-- SCF
------------------------------------------------------------------------ <-- SCF
Initial  -6.43290882E+003                                         40.19  <-- SCF
      1  -6.43291524E+003                    6.41842305E-004      40.38  <-- SCF
      2  -6.43291675E+003                    1.51472416E-004      40.92  <-- SCF
      3  -6.43290606E+003                   -1.06991955E-003      41.36  <-- SCF
      4  -6.43290568E+003                   -3.76605090E-005      41.86  <-- SCF
      5  -6.43290553E+003                   -1.45491489E-005      42.36  <-- SCF
      6  -6.43290550E+003                   -3.12459205E-006      42.81  <-- SCF
      7  -6.43290548E+003                   -2.14106672E-006      43.23  <-- SCF
      8  -6.43290549E+003                    9.13404318E-007      43.58  <-- SCF
      9  -6.43290549E+003                    5.70361120E-008      43.91  <-- SCF
     10  -6.43290549E+003                   -1.04735347E-008      44.25  <-- SCF
------------------------------------------------------------------------ <-- SCF
 
Final energy =  -6432.905490260     eV
(energy not corrected for finite basis set)
 
 
 *********************************** Forces ***********************************
 *                                                                            *
 *                        Cartesian components (eV/A)                         *
 * -------------------------------------------------------------------------- *
 *                   x                    y                    z              *
 *                                                                            *
 * Si        1      0.00000              0.00000              0.24485         *
 * Si        2     -0.00000             -0.00000             -0.24485         *
 * Sc        1      0.00000              0.00000              0.00000         *
 * Sc        2     -0.00000              0.00000             -0.00000         *
 * Te        1      0.00000             -0.16259              0.11746         *
 * Te        2      0.14080              0.08129              0.11746         *
 * Te        3     -0.14080              0.08129              0.11746         *
 * Te        4      0.14080             -0.08129             -0.11746         *
 * Te        5     -0.14080             -0.08129             -0.11746         *
 * Te        6      0.00000              0.16259             -0.11746         *
 *                                                                            *
 ******************************************************************************
 
 ***************** Stress Tensor *****************
 *                                               *
 *          Cartesian components (GPa)           *
 * --------------------------------------------- *
 *             x             y             z     *
 *                                               *
 *  x     -0.816164      0.000000      0.000000  *
 *  y      0.000000     -0.816164     -0.000000  *
 *  z      0.000000     -0.000000     -0.259714  *
 *                                               *
 *  Pressure:    0.6307                          *
 *                                               *
 *************************************************
  
 +------------+-------------+-------------+-----------------+ <-- min BFGS
 |    Step    |   lambda    |   F.delta'  |    enthalpy     | <-- min BFGS
 +------------+-------------+-------------+-----------------+ <-- min BFGS
 |  previous  |    0.000000 |    0.120391 |    -6432.903638 | <-- min BFGS
 | trial step |    1.000000 |    0.109192 |    -6432.905490 | <-- min BFGS
 +------------+-------------+-------------+-----------------+ <-- min BFGS
  

--------------------------------------------------------------------------------
 BFGS: improving iteration         1 with line minimization (lambda= 10.749939)
--------------------------------------------------------------------------------
 
                           -------------------------------
                                      Unit Cell
                           -------------------------------
        Real Lattice(A)              Reciprocal Lattice(1/A)
   6.1432667  -3.5468167   0.0000000        1.0227759  -0.0000000   0.0000000
   0.0000000   7.0936334   0.0000000        0.5113880   0.8857499   0.0000000
   0.0000000   0.0000000   7.9361846        0.0000000   0.0000000   0.7917136
 
                       Lattice parameters(A)       Cell Angles
                    a =    7.093633          alpha =   90.000000
                    b =    7.093633          beta  =   90.000000
                    c =    7.936185          gamma =  120.000000
 
                Current cell volume =  345.843704 A**3
 
                           -------------------------------
                                     Cell Contents
                           -------------------------------
 
            xxxxxxxxxxxxxxxxxxxxxxxxxxxxxxxxxxxxxxxxxxxxxxxxxxxxxxxxxxxx
            x  Element    Atom        Fractional coordinates of atoms  x
            x            Number           u          v          w      x
            x----------------------------------------------------------x
            x  Si           1        -0.000000   0.000000   0.355190   x
            x  Si           2        -0.000000   0.000000  -0.355190   x
            x  Sc           1         0.666667   0.333333   0.500000   x
            x  Sc           2        -0.666667  -0.333333  -0.500000   x
            x  Te           1        -0.000000   0.656861   0.733832   x
            x  Te           2        -0.656861  -0.656861   0.733832   x
            x  Te           3         0.656861   0.000000   0.733832   x
            x  Te           4        -0.656861   0.000000  -0.733832   x
            x  Te           5         0.656861   0.656861  -0.733832   x
            x  Te           6        -0.000000  -0.656861  -0.733832   x
            xxxxxxxxxxxxxxxxxxxxxxxxxxxxxxxxxxxxxxxxxxxxxxxxxxxxxxxxxxxx
 
 
------------------------------------------------------------------------ <-- SCF
SCF loop      Energy                           Energy gain       Timer   <-- SCF
                                               per atom          (sec)   <-- SCF
------------------------------------------------------------------------ <-- SCF
Initial  -6.43379207E+003                                         45.66  <-- SCF
      1  -6.43378014E+003                   -1.19371613E-003      45.86  <-- SCF
      2  -6.43395101E+003                    1.70874379E-002      46.41  <-- SCF
      3  -6.43297755E+003                   -9.73457240E-002      46.86  <-- SCF
      4  -6.43293268E+003                   -4.48738571E-003      47.44  <-- SCF
      5  -6.43291557E+003                   -1.71134464E-003      47.95  <-- SCF
      6  -6.43290903E+003                   -6.53704890E-004      48.42  <-- SCF
      7  -6.43290759E+003                   -1.44004495E-004      48.88  <-- SCF
      8  -6.43290836E+003                    7.75689652E-005      49.38  <-- SCF
      9  -6.43290839E+003                    2.52691991E-006      49.86  <-- SCF
     10  -6.43290842E+003                    2.55724021E-006      50.27  <-- SCF
     11  -6.43290842E+003                    2.50637841E-007      50.59  <-- SCF
     12  -6.43290842E+003                    6.26905508E-008      50.94  <-- SCF
------------------------------------------------------------------------ <-- SCF
 
Final energy =  -6432.908418372     eV
(energy not corrected for finite basis set)
 
 
 *********************************** Forces ***********************************
 *                                                                            *
 *                        Cartesian components (eV/A)                         *
 * -------------------------------------------------------------------------- *
 *                   x                    y                    z              *
 *                                                                            *
 * Si        1      0.00000             -0.00000              0.10441         *
 * Si        2      0.00000              0.00000             -0.10441         *
 * Sc        1      0.00000              0.00000              0.00000         *
 * Sc        2     -0.00000             -0.00000             -0.00000         *
 * Te        1      0.00000             -0.05600              0.02321         *
 * Te        2      0.04849              0.02800              0.02321         *
 * Te        3     -0.04849              0.02800              0.02321         *
 * Te        4      0.04849             -0.02800             -0.02321         *
 * Te        5     -0.04849             -0.02800             -0.02321         *
 * Te        6      0.00000              0.05600             -0.02321         *
 *                                                                            *
 ******************************************************************************
 
 ***************** Stress Tensor *****************
 *                                               *
 *          Cartesian components (GPa)           *
 * --------------------------------------------- *
 *             x             y             z     *
 *                                               *
 *  x      0.108010      0.000000      0.000000  *
 *  y      0.000000      0.108010      0.000000  *
 *  z      0.000000      0.000000      0.114479  *
 *                                               *
 *  Pressure:   -0.1102                          *
 *                                               *
 *************************************************
  
 +------------+-------------+-------------+-----------------+ <-- min BFGS
 |    Step    |   lambda    |   F.delta'  |    enthalpy     | <-- min BFGS
 +------------+-------------+-------------+-----------------+ <-- min BFGS
 |  previous  |    0.000000 |    0.120391 |    -6432.903638 | <-- min BFGS
 | trial step |    1.000000 |    0.109192 |    -6432.905490 | <-- min BFGS
 |  line step |   10.749939 |   -0.007828 |    -6432.908418 | <-- min BFGS
 +------------+-------------+-------------+-----------------+ <-- min BFGS
  
 BFGS: finished iteration     1 with enthalpy= -6.43290842E+003 eV
  
 +-----------+-----------------+-----------------+------------+-----+ <-- BFGS
 | Parameter |      value      |    tolerance    |    units   | OK? | <-- BFGS
 +-----------+-----------------+-----------------+------------+-----+ <-- BFGS
 |  dE/ion   |   4.780684E-004 |   5.000000E-006 |         eV | No  | <-- BFGS
 |  |F|max   |   1.044111E-001 |   1.000000E-002 |       eV/A | No  | <-- BFGS
 |  |dR|max  |   2.997963E-003 |   5.000000E-004 |          A | No  | <-- BFGS
 |   Smax    |   1.144791E-001 |   2.000000E-002 |        GPa | No  | <-- BFGS
 +-----------+-----------------+-----------------+------------+-----+ <-- BFGS
  

================================================================================
 Starting BFGS iteration          2 ...
================================================================================
  
 +------------+-------------+-------------+-----------------+ <-- min BFGS
 |    Step    |   lambda    |   F.delta'  |    enthalpy     | <-- min BFGS
 +------------+-------------+-------------+-----------------+ <-- min BFGS
 |  previous  |    0.000000 |    0.012080 |    -6432.908418 | <-- min BFGS
 +------------+-------------+-------------+-----------------+ <-- min BFGS
  

--------------------------------------------------------------------------------
 BFGS: starting iteration         2 with trial guess (lambda=  1.000000)
--------------------------------------------------------------------------------
 
                           -------------------------------
                                      Unit Cell
                           -------------------------------
        Real Lattice(A)              Reciprocal Lattice(1/A)
   6.1407566  -3.5453675  -0.0000000        1.0231940  -0.0000000   0.0000000
   0.0000000   7.0907349   0.0000000        0.5115970   0.8861120   0.0000000
  -0.0000000   0.0000000   7.9347301        0.0000000  -0.0000000   0.7918587
 
                       Lattice parameters(A)       Cell Angles
                    a =    7.090735          alpha =   90.000000
                    b =    7.090735          beta  =   90.000000
                    c =    7.934730          gamma =  120.000000
 
                Current cell volume =  345.497803 A**3
 
                           -------------------------------
                                     Cell Contents
                           -------------------------------
 
            xxxxxxxxxxxxxxxxxxxxxxxxxxxxxxxxxxxxxxxxxxxxxxxxxxxxxxxxxxxx
            x  Element    Atom        Fractional coordinates of atoms  x
            x            Number           u          v          w      x
            x----------------------------------------------------------x
            x  Si           1        -0.000000   0.000000   0.355184   x
            x  Si           2        -0.000000   0.000000  -0.355184   x
            x  Sc           1         0.666667   0.333333   0.500000   x
            x  Sc           2        -0.666667  -0.333333  -0.500000   x
            x  Te           1        -0.000000   0.656868   0.733825   x
            x  Te           2        -0.656868  -0.656868   0.733825   x
            x  Te           3         0.656868   0.000000   0.733825   x
            x  Te           4        -0.656868   0.000000  -0.733825   x
            x  Te           5         0.656868   0.656868  -0.733825   x
            x  Te           6        -0.000000  -0.656868  -0.733825   x
            xxxxxxxxxxxxxxxxxxxxxxxxxxxxxxxxxxxxxxxxxxxxxxxxxxxxxxxxxxxx
 
 
------------------------------------------------------------------------ <-- SCF
SCF loop      Energy                           Energy gain       Timer   <-- SCF
                                               per atom          (sec)   <-- SCF
------------------------------------------------------------------------ <-- SCF
Initial  -6.43293313E+003                                         52.36  <-- SCF
      1  -6.43291467E+003                   -1.84636925E-003      52.58  <-- SCF
      2  -6.43291542E+003                    7.57755652E-005      53.12  <-- SCF
      3  -6.43290957E+003                   -5.85313696E-004      53.56  <-- SCF
      4  -6.43290933E+003                   -2.41731546E-005      54.08  <-- SCF
      5  -6.43290922E+003                   -1.04516410E-005      54.58  <-- SCF
      6  -6.43290920E+003                   -1.86646202E-006      55.00  <-- SCF
      7  -6.43290919E+003                   -1.24556841E-006      55.39  <-- SCF
      8  -6.43290920E+003                    6.57090692E-007      55.73  <-- SCF
      9  -6.43290920E+003                    6.01015367E-008      56.08  <-- SCF
     10  -6.43290920E+003                    1.39504824E-009      56.44  <-- SCF
------------------------------------------------------------------------ <-- SCF
 
Final energy =  -6432.909199543     eV
(energy not corrected for finite basis set)
 
 
 *********************************** Forces ***********************************
 *                                                                            *
 *                        Cartesian components (eV/A)                         *
 * -------------------------------------------------------------------------- *
 *                   x                    y                    z              *
 *                                                                            *
 * Si        1      0.00000              0.00000              0.10817         *
 * Si        2      0.00000              0.00000             -0.10817         *
 * Sc        1     -0.00000              0.00000              0.00000         *
 * Sc        2      0.00000              0.00000              0.00000         *
 * Te        1      0.00000             -0.06183              0.02981         *
 * Te        2      0.05355              0.03092              0.02981         *
 * Te        3     -0.05355              0.03092              0.02981         *
 * Te        4      0.05355             -0.03092             -0.02981         *
 * Te        5     -0.05355             -0.03092             -0.02981         *
 * Te        6      0.00000              0.06183             -0.02981         *
 *                                                                            *
 ******************************************************************************
 
 ***************** Stress Tensor *****************
 *                                               *
 *          Cartesian components (GPa)           *
 * --------------------------------------------- *
 *             x             y             z     *
 *                                               *
 *  x      0.049643      0.000000      0.000000  *
 *  y      0.000000      0.049643      0.000000  *
 *  z      0.000000      0.000000      0.083457  *
 *                                               *
 *  Pressure:   -0.0609                          *
 *                                               *
 *************************************************
  
 +------------+-------------+-------------+-----------------+ <-- min BFGS
 |    Step    |   lambda    |   F.delta'  |    enthalpy     | <-- min BFGS
 +------------+-------------+-------------+-----------------+ <-- min BFGS
 |  previous  |    0.000000 |    0.012080 |    -6432.908418 | <-- min BFGS
 | trial step |    1.000000 |    0.004883 |    -6432.909200 | <-- min BFGS
 +------------+-------------+-------------+-----------------+ <-- min BFGS
  

--------------------------------------------------------------------------------
 BFGS: improving iteration         2 with line minimization (lambda=  1.678508)
--------------------------------------------------------------------------------
 
                           -------------------------------
                                      Unit Cell
                           -------------------------------
        Real Lattice(A)              Reciprocal Lattice(1/A)
   6.1390534  -3.5443841  -0.0000000        1.0234779  -0.0000000   0.0000000
   0.0000000   7.0887683   0.0000000        0.5117389   0.8863578   0.0000000
  -0.0000000   0.0000000   7.9337432        0.0000000  -0.0000000   0.7919572
 
                       Lattice parameters(A)       Cell Angles
                    a =    7.088768          alpha =   90.000000
                    b =    7.088768          beta  =   90.000000
                    c =    7.933743          gamma =  120.000000
 
                Current cell volume =  345.263231 A**3
 
                           -------------------------------
                                     Cell Contents
                           -------------------------------
 
            xxxxxxxxxxxxxxxxxxxxxxxxxxxxxxxxxxxxxxxxxxxxxxxxxxxxxxxxxxxx
            x  Element    Atom        Fractional coordinates of atoms  x
            x            Number           u          v          w      x
            x----------------------------------------------------------x
            x  Si           1        -0.000000   0.000000   0.355179   x
            x  Si           2        -0.000000   0.000000  -0.355179   x
            x  Sc           1         0.666667   0.333333   0.500000   x
            x  Sc           2        -0.666667  -0.333333  -0.500000   x
            x  Te           1        -0.000000   0.656873   0.733821   x
            x  Te           2        -0.656873  -0.656873   0.733821   x
            x  Te           3         0.656873   0.000000   0.733821   x
            x  Te           4        -0.656873   0.000000  -0.733821   x
            x  Te           5         0.656873   0.656873  -0.733821   x
            x  Te           6        -0.000000  -0.656873  -0.733821   x
            xxxxxxxxxxxxxxxxxxxxxxxxxxxxxxxxxxxxxxxxxxxxxxxxxxxxxxxxxxxx
 
 
------------------------------------------------------------------------ <-- SCF
SCF loop      Energy                           Energy gain       Timer   <-- SCF
                                               per atom          (sec)   <-- SCF
------------------------------------------------------------------------ <-- SCF
Initial  -6.43292482E+003                                         58.77  <-- SCF
      1  -6.43291213E+003                   -1.26898199E-003      58.98  <-- SCF
      2  -6.43291246E+003                    3.37277302E-005      59.47  <-- SCF
      3  -6.43290983E+003                   -2.62887005E-004      59.94  <-- SCF
      4  -6.43290972E+003                   -1.15687009E-005      60.44  <-- SCF
      5  -6.43290967E+003                   -4.97010553E-006      60.88  <-- SCF
      6  -6.43290966E+003                   -7.93178893E-007      61.30  <-- SCF
      7  -6.43290965E+003                   -7.18473820E-007      61.69  <-- SCF
      8  -6.43290966E+003                    5.50289687E-007      62.08  <-- SCF
      9  -6.43290966E+003                   -1.19868349E-008      62.38  <-- SCF
     10  -6.43290966E+003                   -2.67954753E-008      62.70  <-- SCF
------------------------------------------------------------------------ <-- SCF
 
Final energy =  -6432.909658768     eV
(energy not corrected for finite basis set)
 
 
 *********************************** Forces ***********************************
 *                                                                            *
 *                        Cartesian components (eV/A)                         *
 * -------------------------------------------------------------------------- *
 *                   x                    y                    z              *
 *                                                                            *
 * Si        1      0.00000              0.00000              0.11124         *
 * Si        2      0.00000              0.00000             -0.11124         *
 * Sc        1      0.00000              0.00000              0.00000         *
 * Sc        2     -0.00000              0.00000              0.00000         *
 * Te        1      0.00000             -0.06598              0.03414         *
 * Te        2      0.05714              0.03299              0.03414         *
 * Te        3     -0.05714              0.03299              0.03414         *
 * Te        4      0.05714             -0.03299             -0.03414         *
 * Te        5     -0.05714             -0.03299             -0.03414         *
 * Te        6      0.00000              0.06598             -0.03414         *
 *                                                                            *
 ******************************************************************************
 
 ***************** Stress Tensor *****************
 *                                               *
 *          Cartesian components (GPa)           *
 * --------------------------------------------- *
 *             x             y             z     *
 *                                               *
 *  x      0.012242      0.000000      0.000000  *
 *  y      0.000000      0.012242      0.000000  *
 *  z      0.000000      0.000000      0.065835  *
 *                                               *
 *  Pressure:   -0.0301                          *
 *                                               *
 *************************************************
  
 +------------+-------------+-------------+-----------------+ <-- min BFGS
 |    Step    |   lambda    |   F.delta'  |    enthalpy     | <-- min BFGS
 +------------+-------------+-------------+-----------------+ <-- min BFGS
 |  previous  |    0.000000 |    0.012080 |    -6432.908418 | <-- min BFGS
 | trial step |    1.000000 |    0.004883 |    -6432.909200 | <-- min BFGS
 |  line step |    1.678508 |    0.000316 |    -6432.909659 | <-- min BFGS
 +------------+-------------+-------------+-----------------+ <-- min BFGS
  
 BFGS: finished iteration     2 with enthalpy= -6.43290966E+003 eV
  
 +-----------+-----------------+-----------------+------------+-----+ <-- BFGS
 | Parameter |      value      |    tolerance    |    units   | OK? | <-- BFGS
 +-----------+-----------------+-----------------+------------+-----+ <-- BFGS
 |  dE/ion   |   1.240396E-004 |   5.000000E-006 |         eV | No  | <-- BFGS
 |  |F|max   |   1.112440E-001 |   1.000000E-002 |       eV/A | No  | <-- BFGS
 |  |dR|max  |   1.226522E-004 |   5.000000E-004 |          A | Yes | <-- BFGS
 |   Smax    |   6.583546E-002 |   2.000000E-002 |        GPa | No  | <-- BFGS
 +-----------+-----------------+-----------------+------------+-----+ <-- BFGS
  

================================================================================
 Starting BFGS iteration          3 ...
================================================================================
  
 +------------+-------------+-------------+-----------------+ <-- min BFGS
 |    Step    |   lambda    |   F.delta'  |    enthalpy     | <-- min BFGS
 +------------+-------------+-------------+-----------------+ <-- min BFGS
 |  previous  |    0.000000 |    0.037144 |    -6432.909659 | <-- min BFGS
 +------------+-------------+-------------+-----------------+ <-- min BFGS
  

--------------------------------------------------------------------------------
 BFGS: starting iteration         3 with trial guess (lambda=  1.000000)
--------------------------------------------------------------------------------
 
                           -------------------------------
                                      Unit Cell
                           -------------------------------
        Real Lattice(A)              Reciprocal Lattice(1/A)
   6.1388574  -3.5442710  -0.0000000        1.0235106  -0.0000000   0.0000000
   0.0000000   7.0885419   0.0000000        0.5117553   0.8863861   0.0000000
  -0.0000000   0.0000000   7.9330704        0.0000000  -0.0000000   0.7920244
 
                       Lattice parameters(A)       Cell Angles
                    a =    7.088542          alpha =   90.000000
                    b =    7.088542          beta  =   90.000000
                    c =    7.933070          gamma =  120.000000
 
                Current cell volume =  345.211905 A**3
 
                           -------------------------------
                                     Cell Contents
                           -------------------------------
 
            xxxxxxxxxxxxxxxxxxxxxxxxxxxxxxxxxxxxxxxxxxxxxxxxxxxxxxxxxxxx
            x  Element    Atom        Fractional coordinates of atoms  x
            x            Number           u          v          w      x
            x----------------------------------------------------------x
            x  Si           1        -0.000000   0.000000   0.355204   x
            x  Si           2        -0.000000   0.000000  -0.355204   x
            x  Sc           1         0.666667   0.333333   0.500000   x
            x  Sc           2        -0.666667  -0.333333  -0.500000   x
            x  Te           1        -0.000000   0.656857   0.733828   x
            x  Te           2        -0.656857  -0.656857   0.733828   x
            x  Te           3         0.656857   0.000000   0.733828   x
            x  Te           4        -0.656857   0.000000  -0.733828   x
            x  Te           5         0.656857   0.656857  -0.733828   x
            x  Te           6        -0.000000  -0.656857  -0.733828   x
            xxxxxxxxxxxxxxxxxxxxxxxxxxxxxxxxxxxxxxxxxxxxxxxxxxxxxxxxxxxx
 
 
------------------------------------------------------------------------ <-- SCF
SCF loop      Energy                           Energy gain       Timer   <-- SCF
                                               per atom          (sec)   <-- SCF
------------------------------------------------------------------------ <-- SCF
Initial  -6.43293072E+003                                         64.14  <-- SCF
      1  -6.43291023E+003                   -2.04899847E-003      64.36  <-- SCF
      2  -6.43291028E+003                    5.24855169E-006      64.80  <-- SCF
      3  -6.43290993E+003                   -3.47683210E-005      65.23  <-- SCF
      4  -6.43290988E+003                   -5.27463332E-006      65.66  <-- SCF
      5  -6.43290986E+003                   -1.74547496E-006      66.05  <-- SCF
      6  -6.43290986E+003                   -1.69015067E-007      66.39  <-- SCF
      7  -6.43290986E+003                    2.42063840E-007      66.75  <-- SCF
------------------------------------------------------------------------ <-- SCF
 
Final energy =  -6432.909863606     eV
(energy not corrected for finite basis set)
 
 
 *********************************** Forces ***********************************
 *                                                                            *
 *                        Cartesian components (eV/A)                         *
 * -------------------------------------------------------------------------- *
 *                   x                    y                    z              *
 *                                                                            *
 * Si        1      0.00000              0.00000              0.10384         *
 * Si        2      0.00000              0.00000             -0.10384         *
 * Sc        1      0.00000              0.00000             -0.00000         *
 * Sc        2      0.00000              0.00000             -0.00000         *
 * Te        1     -0.00000             -0.06474              0.03666         *
 * Te        2      0.05607              0.03237              0.03666         *
 * Te        3     -0.05607              0.03237              0.03666         *
 * Te        4      0.05607             -0.03237             -0.03666         *
 * Te        5     -0.05607             -0.03237             -0.03666         *
 * Te        6      0.00000              0.06474             -0.03666         *
 *                                                                            *
 ******************************************************************************
 
 ***************** Stress Tensor *****************
 *                                               *
 *          Cartesian components (GPa)           *
 * --------------------------------------------- *
 *             x             y             z     *
 *                                               *
 *  x      0.000033     -0.000000      0.000000  *
 *  y     -0.000000      0.000033      0.000000  *
 *  z      0.000000      0.000000      0.044089  *
 *                                               *
 *  Pressure:   -0.0147                          *
 *                                               *
 *************************************************
  
 +------------+-------------+-------------+-----------------+ <-- min BFGS
 |    Step    |   lambda    |   F.delta'  |    enthalpy     | <-- min BFGS
 +------------+-------------+-------------+-----------------+ <-- min BFGS
 |  previous  |    0.000000 |    0.037144 |    -6432.909659 | <-- min BFGS
 | trial step |    1.000000 |    0.034368 |    -6432.909864 | <-- min BFGS
 +------------+-------------+-------------+-----------------+ <-- min BFGS
  

--------------------------------------------------------------------------------
 BFGS: improving iteration         3 with line minimization (lambda= 13.379885)
--------------------------------------------------------------------------------
 
                           -------------------------------
                                      Unit Cell
                           -------------------------------
        Real Lattice(A)              Reciprocal Lattice(1/A)
   6.1364303  -3.5428697  -0.0000000        1.0239154  -0.0000000   0.0000000
   0.0000000   7.0857394   0.0000000        0.5119577   0.8867367   0.0000000
  -0.0000000   0.0000000   7.9247419        0.0000000  -0.0000000   0.7928568
 
                       Lattice parameters(A)       Cell Angles
                    a =    7.085739          alpha =   90.000000
                    b =    7.085739          beta  =   90.000000
                    c =    7.924742          gamma =  120.000000
 
                Current cell volume =  344.576858 A**3
 
                           -------------------------------
                                     Cell Contents
                           -------------------------------
 
            xxxxxxxxxxxxxxxxxxxxxxxxxxxxxxxxxxxxxxxxxxxxxxxxxxxxxxxxxxxx
            x  Element    Atom        Fractional coordinates of atoms  x
            x            Number           u          v          w      x
            x----------------------------------------------------------x
            x  Si           1        -0.000000   0.000000   0.355513   x
            x  Si           2        -0.000000   0.000000  -0.355513   x
            x  Sc           1         0.666667   0.333333   0.500000   x
            x  Sc           2        -0.666667  -0.333333  -0.500000   x
            x  Te           1        -0.000000   0.656655   0.733917   x
            x  Te           2        -0.656655  -0.656655   0.733917   x
            x  Te           3         0.656655   0.000000   0.733917   x
            x  Te           4        -0.656655   0.000000  -0.733917   x
            x  Te           5         0.656655   0.656655  -0.733917   x
            x  Te           6        -0.000000  -0.656655  -0.733917   x
            xxxxxxxxxxxxxxxxxxxxxxxxxxxxxxxxxxxxxxxxxxxxxxxxxxxxxxxxxxxx
 
 
------------------------------------------------------------------------ <-- SCF
SCF loop      Energy                           Energy gain       Timer   <-- SCF
                                               per atom          (sec)   <-- SCF
------------------------------------------------------------------------ <-- SCF
Initial  -6.43319381E+003                                         68.19  <-- SCF
      1  -6.43297550E+003                   -2.18311725E-002      68.39  <-- SCF
      2  -6.43298458E+003                    9.08762506E-004      68.94  <-- SCF
      3  -6.43292204E+003                   -6.25379548E-003      69.39  <-- SCF
      4  -6.43291449E+003                   -7.55961454E-004      69.89  <-- SCF
      5  -6.43291218E+003                   -2.30642981E-004      70.38  <-- SCF
      6  -6.43291187E+003                   -3.06152810E-005      70.84  <-- SCF
      7  -6.43291184E+003                   -3.15231707E-006      71.31  <-- SCF
      8  -6.43291190E+003                    6.35904783E-006      71.72  <-- SCF
      9  -6.43291192E+003                    1.25841209E-006      72.06  <-- SCF
     10  -6.43291192E+003                   -4.96919618E-008      72.39  <-- SCF
     11  -6.43291192E+003                    1.01506968E-007      72.75  <-- SCF
------------------------------------------------------------------------ <-- SCF
 
Final energy =  -6432.911917951     eV
(energy not corrected for finite basis set)
 
 
 *********************************** Forces ***********************************
 *                                                                            *
 *                        Cartesian components (eV/A)                         *
 * -------------------------------------------------------------------------- *
 *                   x                    y                    z              *
 *                                                                            *
 * Si        1      0.00000              0.00000              0.00946         *
 * Si        2      0.00000             -0.00000             -0.00946         *
 * Sc        1      0.00000              0.00000              0.00000         *
 * Sc        2     -0.00000              0.00000             -0.00000         *
 * Te        1      0.00000             -0.04809              0.04021         *
 * Te        2      0.04165              0.02405              0.04021         *
 * Te        3     -0.04165              0.02405              0.04021         *
 * Te        4      0.04165             -0.02405             -0.04021         *
 * Te        5     -0.04165             -0.02405             -0.04021         *
 * Te        6      0.00000              0.04809             -0.04021         *
 *                                                                            *
 ******************************************************************************
 
 ***************** Stress Tensor *****************
 *                                               *
 *          Cartesian components (GPa)           *
 * --------------------------------------------- *
 *             x             y             z     *
 *                                               *
 *  x     -0.013392     -0.000000      0.000000  *
 *  y     -0.000000     -0.013392      0.000000  *
 *  z      0.000000      0.000000     -0.080595  *
 *                                               *
 *  Pressure:    0.0358                          *
 *                                               *
 *************************************************
  
 +------------+-------------+-------------+-----------------+ <-- min BFGS
 |    Step    |   lambda    |   F.delta'  |    enthalpy     | <-- min BFGS
 +------------+-------------+-------------+-----------------+ <-- min BFGS
 |  previous  |    0.000000 |    0.037144 |    -6432.909659 | <-- min BFGS
 | trial step |    1.000000 |    0.034368 |    -6432.909864 | <-- min BFGS
 |  line step |   13.379885 |    0.011012 |    -6432.911918 | <-- min BFGS
 +------------+-------------+-------------+-----------------+ <-- min BFGS
  
 BFGS: finished iteration     3 with enthalpy= -6.43291192E+003 eV
  
 +-----------+-----------------+-----------------+------------+-----+ <-- BFGS
 | Parameter |      value      |    tolerance    |    units   | OK? | <-- BFGS
 +-----------+-----------------+-----------------+------------+-----+ <-- BFGS
 |  dE/ion   |   2.259183E-004 |   5.000000E-006 |         eV | No  | <-- BFGS
 |  |F|max   |   6.268313E-002 |   1.000000E-002 |       eV/A | No  | <-- BFGS
 |  |dR|max  |   2.645705E-003 |   5.000000E-004 |          A | No  | <-- BFGS
 |   Smax    |   8.059478E-002 |   2.000000E-002 |        GPa | No  | <-- BFGS
 +-----------+-----------------+-----------------+------------+-----+ <-- BFGS
  

================================================================================
 Starting BFGS iteration          4 ...
================================================================================
  
 +------------+-------------+-------------+-----------------+ <-- min BFGS
 |    Step    |   lambda    |   F.delta'  |    enthalpy     | <-- min BFGS
 +------------+-------------+-------------+-----------------+ <-- min BFGS
 |  previous  |    0.000000 |    0.021084 |    -6432.911918 | <-- min BFGS
 +------------+-------------+-------------+-----------------+ <-- min BFGS
  

--------------------------------------------------------------------------------
 BFGS: starting iteration         4 with trial guess (lambda=  1.000000)
--------------------------------------------------------------------------------
 
                           -------------------------------
                                      Unit Cell
                           -------------------------------
        Real Lattice(A)              Reciprocal Lattice(1/A)
   6.1374738  -3.5434721  -0.0000000        1.0237413  -0.0000000   0.0000000
   0.0000000   7.0869443   0.0000000        0.5118706   0.8865860   0.0000000
  -0.0000000   0.0000000   7.9220592        0.0000000  -0.0000000   0.7931253
 
                       Lattice parameters(A)       Cell Angles
                    a =    7.086944          alpha =   90.000000
                    b =    7.086944          beta  =   90.000000
                    c =    7.922059          gamma =  120.000000
 
                Current cell volume =  344.577372 A**3
 
                           -------------------------------
                                     Cell Contents
                           -------------------------------
 
            xxxxxxxxxxxxxxxxxxxxxxxxxxxxxxxxxxxxxxxxxxxxxxxxxxxxxxxxxxxx
            x  Element    Atom        Fractional coordinates of atoms  x
            x            Number           u          v          w      x
            x----------------------------------------------------------x
            x  Si           1        -0.000000   0.000000   0.355692   x
            x  Si           2        -0.000000   0.000000  -0.355692   x
            x  Sc           1         0.666667   0.333333   0.500000   x
            x  Sc           2        -0.666667  -0.333333  -0.500000   x
            x  Te           1        -0.000000   0.656528   0.733979   x
            x  Te           2        -0.656528  -0.656528   0.733979   x
            x  Te           3         0.656528   0.000000   0.733979   x
            x  Te           4        -0.656528   0.000000  -0.733979   x
            x  Te           5         0.656528   0.656528  -0.733979   x
            x  Te           6        -0.000000  -0.656528  -0.733979   x
            xxxxxxxxxxxxxxxxxxxxxxxxxxxxxxxxxxxxxxxxxxxxxxxxxxxxxxxxxxxx
 
 
------------------------------------------------------------------------ <-- SCF
SCF loop      Energy                           Energy gain       Timer   <-- SCF
                                               per atom          (sec)   <-- SCF
------------------------------------------------------------------------ <-- SCF
Initial  -6.43300853E+003                                         74.19  <-- SCF
      1  -6.43291857E+003                   -8.99586321E-003      74.41  <-- SCF
      2  -6.43291920E+003                    6.30320801E-005      74.94  <-- SCF
      3  -6.43291318E+003                   -6.01941233E-004      75.36  <-- SCF
      4  -6.43291239E+003                   -7.91813809E-005      75.84  <-- SCF
      5  -6.43291222E+003                   -1.70182398E-005      76.33  <-- SCF
      6  -6.43291211E+003                   -1.06499112E-005      76.73  <-- SCF
      7  -6.43291211E+003                   -1.79751788E-007      77.20  <-- SCF
      8  -6.43291211E+003                    6.20713792E-007      77.53  <-- SCF
      9  -6.43291212E+003                    2.97046977E-007      77.86  <-- SCF
     10  -6.43291212E+003                    1.20276237E-007      78.20  <-- SCF
------------------------------------------------------------------------ <-- SCF
 
Final energy =  -6432.912117455     eV
(energy not corrected for finite basis set)
 
 
 *********************************** Forces ***********************************
 *                                                                            *
 *                        Cartesian components (eV/A)                         *
 * -------------------------------------------------------------------------- *
 *                   x                    y                    z              *
 *                                                                            *
 * Si        1      0.00000              0.00000             -0.04627         *
 * Si        2      0.00000              0.00000              0.04627         *
 * Sc        1      0.00000              0.00000             -0.00000         *
 * Sc        2      0.00000              0.00000              0.00000         *
 * Te        1      0.00000             -0.03307              0.03490         *
 * Te        2      0.02864              0.01653              0.03490         *
 * Te        3     -0.02864              0.01653              0.03490         *
 * Te        4      0.02864             -0.01653             -0.03490         *
 * Te        5     -0.02864             -0.01653             -0.03490         *
 * Te        6     -0.00000              0.03307             -0.03490         *
 *                                                                            *
 ******************************************************************************
 
 ***************** Stress Tensor *****************
 *                                               *
 *          Cartesian components (GPa)           *
 * --------------------------------------------- *
 *             x             y             z     *
 *                                               *
 *  x      0.035281      0.000000      0.000000  *
 *  y      0.000000      0.035281     -0.000000  *
 *  z      0.000000     -0.000000     -0.119398  *
 *                                               *
 *  Pressure:    0.0163                          *
 *                                               *
 *************************************************
  
 +------------+-------------+-------------+-----------------+ <-- min BFGS
 |    Step    |   lambda    |   F.delta'  |    enthalpy     | <-- min BFGS
 +------------+-------------+-------------+-----------------+ <-- min BFGS
 |  previous  |    0.000000 |    0.021084 |    -6432.911918 | <-- min BFGS
 | trial step |    1.000000 |    0.002332 |    -6432.912117 | <-- min BFGS
 +------------+-------------+-------------+-----------------+ <-- min BFGS
  
 BFGS: finished iteration     4 with enthalpy= -6.43291212E+003 eV
  
 +-----------+-----------------+-----------------+------------+-----+ <-- BFGS
 | Parameter |      value      |    tolerance    |    units   | OK? | <-- BFGS
 +-----------+-----------------+-----------------+------------+-----+ <-- BFGS
[...]
 * Te        3      0.00772             -0.00446             -0.00292         *
 * Te        4     -0.00772              0.00446              0.00292         *
 * Te        5      0.00772              0.00446              0.00292         *
 * Te        6      0.00000             -0.00891              0.00292         *
 *                                                                            *
 ******************************************************************************
 
 ***************** Stress Tensor *****************
 *                                               *
 *          Cartesian components (GPa)           *
 * --------------------------------------------- *
 *             x             y             z     *
 *                                               *
 *  x      0.109063      0.000000      0.000000  *
 *  y      0.000000      0.109063      0.000000  *
 *  z      0.000000      0.000000      0.065648  *
 *                                               *
 *  Pressure:   -0.0946                          *
 *                                               *
 *************************************************
  
 +------------+-------------+-------------+-----------------+ <-- min BFGS
 |    Step    |   lambda    |   F.delta'  |    enthalpy     | <-- min BFGS
 +------------+-------------+-------------+-----------------+ <-- min BFGS
 |  previous  |    0.000000 |    0.000640 |    -6432.922505 | <-- min BFGS
 | trial step |    1.000000 |   -0.013050 |    -6432.921037 | <-- min BFGS
 +------------+-------------+-------------+-----------------+ <-- min BFGS
  

--------------------------------------------------------------------------------
 BFGS: improving iteration       206 with line minimization (lambda=  0.046734)
--------------------------------------------------------------------------------
 
                           -------------------------------
                                      Unit Cell
                           -------------------------------
        Real Lattice(A)              Reciprocal Lattice(1/A)
   6.1273052  -3.5376013   0.0000000        1.0254402  -0.0000000  -0.0000000
   0.0000000   7.0752026   0.0000000        0.5127201   0.8880573  -0.0000000
   0.0000000   0.0000000   7.8617106       -0.0000000  -0.0000000   0.7992135
 
                       Lattice parameters(A)       Cell Angles
                    a =    7.075203          alpha =   90.000000
                    b =    7.075203          beta  =   90.000000
                    c =    7.861711          gamma =  120.000000
 
                Current cell volume =  340.820293 A**3
 
                           -------------------------------
                                     Cell Contents
                           -------------------------------
 
            xxxxxxxxxxxxxxxxxxxxxxxxxxxxxxxxxxxxxxxxxxxxxxxxxxxxxxxxxxxx
            x  Element    Atom        Fractional coordinates of atoms  x
            x            Number           u          v          w      x
            x----------------------------------------------------------x
            x  Si           1         0.000000   0.000000   0.354156   x
            x  Si           2         0.000000   0.000000  -0.354156   x
            x  Sc           1         0.666667   0.333333   0.500000   x
            x  Sc           2        -0.666667  -0.333333  -0.500000   x
            x  Te           1        -0.000000   0.655740   0.736826   x
            x  Te           2        -0.655740  -0.655740   0.736826   x
            x  Te           3         0.655740   0.000000   0.736826   x
            x  Te           4        -0.655740   0.000000  -0.736826   x
            x  Te           5         0.655740   0.655740  -0.736826   x
            x  Te           6        -0.000000  -0.655740  -0.736826   x
            xxxxxxxxxxxxxxxxxxxxxxxxxxxxxxxxxxxxxxxxxxxxxxxxxxxxxxxxxxxx
 
 
------------------------------------------------------------------------ <-- SCF
SCF loop      Energy                           Energy gain       Timer   <-- SCF
                                               per atom          (sec)   <-- SCF
------------------------------------------------------------------------ <-- SCF
Initial  -6.43297728E+003                                       2116.95  <-- SCF
      1  -6.43294195E+003                   -3.53281758E-003    2117.17  <-- SCF
      2  -6.43294468E+003                    2.73371051E-004    2117.70  <-- SCF
      3  -6.43292382E+003                   -2.08586069E-003    2118.14  <-- SCF
      4  -6.43292291E+003                   -9.18624039E-005    2118.62  <-- SCF
      5  -6.43292252E+003                   -3.81831019E-005    2119.11  <-- SCF
      6  -6.43292247E+003                   -5.21095546E-006    2119.58  <-- SCF
      7  -6.43292242E+003                   -4.82627063E-006    2120.00  <-- SCF
      8  -6.43292244E+003                    2.05240251E-006    2120.34  <-- SCF
      9  -6.43292245E+003                    1.93761745E-007    2120.67  <-- SCF
     10  -6.43292245E+003                    9.39905826E-010    2121.00  <-- SCF
------------------------------------------------------------------------ <-- SCF
 
Final energy =  -6432.922446429     eV
(energy not corrected for finite basis set)
 
 
 *********************************** Forces ***********************************
 *                                                                            *
 *                        Cartesian components (eV/A)                         *
 * -------------------------------------------------------------------------- *
 *                   x                    y                    z              *
 *                                                                            *
 * Si        1      0.00000              0.00000             -0.00505         *
 * Si        2      0.00000             -0.00000              0.00505         *
 * Sc        1     -0.00000              0.00000              0.00000         *
 * Sc        2      0.00000              0.00000             -0.00000         *
 * Te        1     -0.00000              0.00073              0.00869         *
 * Te        2     -0.00063             -0.00036              0.00869         *
 * Te        3      0.00063             -0.00036              0.00869         *
 * Te        4     -0.00063              0.00036             -0.00869         *
 * Te        5      0.00063              0.00036             -0.00869         *
 * Te        6     -0.00000             -0.00073             -0.00869         *
 *                                                                            *
 ******************************************************************************
 
 ***************** Stress Tensor *****************
 *                                               *
 *          Cartesian components (GPa)           *
 * --------------------------------------------- *
 *             x             y             z     *
 *                                               *
 *  x      0.008894     -0.000000      0.000000  *
 *  y     -0.000000      0.008894     -0.000000  *
 *  z      0.000000     -0.000000      0.010238  *
 *                                               *
 *  Pressure:   -0.0093                          *
 *                                               *
 *************************************************
  
 +------------+-------------+-------------+-----------------+ <-- min BFGS
 |    Step    |   lambda    |   F.delta'  |    enthalpy     | <-- min BFGS
 +------------+-------------+-------------+-----------------+ <-- min BFGS
 |  previous  |    0.000000 |    0.000640 |    -6432.922505 | <-- min BFGS
 | trial step |    1.000000 |   -0.013050 |    -6432.921037 | <-- min BFGS
 |  line step |    0.046734 |   -0.001175 |    -6432.922446 | <-- min BFGS
 +------------+-------------+-------------+-----------------+ <-- min BFGS
  

--------------------------------------------------------------------------------
 BFGS: improving iteration       206 with quad minimization (lambda=  0.000926)
--------------------------------------------------------------------------------
 
                           -------------------------------
                                      Unit Cell
                           -------------------------------
        Real Lattice(A)              Reciprocal Lattice(1/A)
   6.1270847  -3.5374740   0.0000000        1.0254771  -0.0000000  -0.0000000
   0.0000000   7.0749481   0.0000000        0.5127386   0.8880892  -0.0000000
   0.0000000   0.0000000   7.8615744       -0.0000000  -0.0000000   0.7992274
 
                       Lattice parameters(A)       Cell Angles
                    a =    7.074948          alpha =   90.000000
                    b =    7.074948          beta  =   90.000000
                    c =    7.861574          gamma =  120.000000
 
                Current cell volume =  340.789867 A**3
 
                           -------------------------------
                                     Cell Contents
                           -------------------------------
 
            xxxxxxxxxxxxxxxxxxxxxxxxxxxxxxxxxxxxxxxxxxxxxxxxxxxxxxxxxxxx
            x  Element    Atom        Fractional coordinates of atoms  x
            x            Number           u          v          w      x
            x----------------------------------------------------------x
            x  Si           1         0.000000   0.000000   0.354156   x
            x  Si           2         0.000000   0.000000  -0.354156   x
            x  Sc           1         0.666667   0.333333   0.500000   x
            x  Sc           2        -0.666667  -0.333333  -0.500000   x
            x  Te           1        -0.000000   0.655740   0.736826   x
            x  Te           2        -0.655740  -0.655740   0.736826   x
            x  Te           3         0.655740   0.000000   0.736826   x
            x  Te           4        -0.655740   0.000000  -0.736826   x
            x  Te           5         0.655740   0.655740  -0.736826   x
            x  Te           6        -0.000000  -0.655740  -0.736826   x
            xxxxxxxxxxxxxxxxxxxxxxxxxxxxxxxxxxxxxxxxxxxxxxxxxxxxxxxxxxxx
 
 
------------------------------------------------------------------------ <-- SCF
SCF loop      Energy                           Energy gain       Timer   <-- SCF
                                               per atom          (sec)   <-- SCF
------------------------------------------------------------------------ <-- SCF
Initial  -6.43292435E+003                                       2122.38  <-- SCF
      1  -6.43292254E+003                   -1.81783782E-004    2122.58  <-- SCF
      2  -6.43292254E+003                    1.56018567E-007    2122.91  <-- SCF
      3  -6.43292251E+003                   -2.80625710E-006    2123.25  <-- SCF
      4  -6.43292251E+003                   -2.34002135E-007    2123.67  <-- SCF
      5  -6.43292251E+003                   -1.40248984E-007    2124.00  <-- SCF
------------------------------------------------------------------------ <-- SCF
 
Final energy =  -6432.922505958     eV
(energy not corrected for finite basis set)
 
 
 *********************************** Forces ***********************************
 *                                                                            *
 *                        Cartesian components (eV/A)                         *
 * -------------------------------------------------------------------------- *
 *                   x                    y                    z              *
 *                                                                            *
 * Si        1      0.00000              0.00000             -0.00528         *
 * Si        2      0.00000             -0.00000              0.00528         *
 * Sc        1     -0.00000              0.00000              0.00000         *
 * Sc        2      0.00000              0.00000              0.00000         *
 * Te        1      0.00000             -0.00318              0.00843         *
 * Te        2      0.00276              0.00159              0.00843         *
 * Te        3     -0.00276              0.00159              0.00843         *
 * Te        4      0.00276             -0.00159             -0.00843         *
 * Te        5     -0.00276             -0.00159             -0.00843         *
 * Te        6      0.00000              0.00318             -0.00843         *
 *                                                                            *
 ******************************************************************************
 
 ***************** Stress Tensor *****************
 *                                               *
 *          Cartesian components (GPa)           *
 * --------------------------------------------- *
 *             x             y             z     *
 *                                               *
 *  x     -0.006379      0.000000      0.000000  *
 *  y      0.000000     -0.006379      0.000000  *
 *  z      0.000000      0.000000     -0.000671  *
 *                                               *
 *  Pressure:    0.0045                          *
 *                                               *
 *************************************************
  
 +------------+-------------+-------------+-----------------+ <-- min BFGS
 |    Step    |   lambda    |   F.delta'  |    enthalpy     | <-- min BFGS
 +------------+-------------+-------------+-----------------+ <-- min BFGS
 |  previous  |    0.000000 |    0.000640 |    -6432.922505 | <-- min BFGS
 | trial step |    1.000000 |   -0.013050 |    -6432.921037 | <-- min BFGS
 |  line step |    0.046734 |   -0.001175 |    -6432.922446 | <-- min BFGS
 |  quad step |    0.000926 |    0.000693 |    -6432.922506 | <-- min BFGS
 +------------+-------------+-------------+-----------------+ <-- min BFGS
  
 BFGS: finished iteration   206 with enthalpy= -6.43292251E+003 eV
  
 +-----------+-----------------+-----------------+------------+-----+ <-- BFGS
 | Parameter |      value      |    tolerance    |    units   | OK? | <-- BFGS
 +-----------+-----------------+-----------------+------------+-----+ <-- BFGS
 |  dE/ion   |   5.788565E-008 |   5.000000E-006 |         eV | Yes | <-- BFGS
 |  |F|max   |   9.016092E-003 |   1.000000E-002 |       eV/A | Yes | <-- BFGS
 |  |dR|max  |   5.855791E-009 |   5.000000E-004 |          A | Yes | <-- BFGS
 |   Smax    |   6.378684E-003 |   2.000000E-002 |        GPa | Yes | <-- BFGS
 +-----------+-----------------+-----------------+------------+-----+ <-- BFGS
  
 BFGS: Geometry optimization completed successfully.

================================================================================
 BFGS: Final Configuration:
================================================================================
 
                           -------------------------------
                                      Unit Cell
                           -------------------------------
        Real Lattice(A)              Reciprocal Lattice(1/A)
   6.1270847  -3.5374740   0.0000000        1.0254771  -0.0000000  -0.0000000
   0.0000000   7.0749481   0.0000000        0.5127386   0.8880892  -0.0000000
   0.0000000   0.0000000   7.8615744       -0.0000000  -0.0000000   0.7992274
 
                       Lattice parameters(A)       Cell Angles
                    a =    7.074948          alpha =   90.000000
                    b =    7.074948          beta  =   90.000000
                    c =    7.861574          gamma =  120.000000
 
                Current cell volume =  340.789867 A**3
 
                           -------------------------------
                                     Cell Contents
                           -------------------------------
 
            xxxxxxxxxxxxxxxxxxxxxxxxxxxxxxxxxxxxxxxxxxxxxxxxxxxxxxxxxxxx
            x  Element    Atom        Fractional coordinates of atoms  x
            x            Number           u          v          w      x
            x----------------------------------------------------------x
            x  Si           1         0.000000   0.000000   0.354156   x
            x  Si           2         0.000000   0.000000  -0.354156   x
            x  Sc           1         0.666667   0.333333   0.500000   x
            x  Sc           2        -0.666667  -0.333333  -0.500000   x
            x  Te           1        -0.000000   0.655740   0.736826   x
            x  Te           2        -0.655740  -0.655740   0.736826   x
            x  Te           3         0.655740   0.000000   0.736826   x
            x  Te           4        -0.655740   0.000000  -0.736826   x
            x  Te           5         0.655740   0.655740  -0.736826   x
            x  Te           6        -0.000000  -0.655740  -0.736826   x
            xxxxxxxxxxxxxxxxxxxxxxxxxxxxxxxxxxxxxxxxxxxxxxxxxxxxxxxxxxxx
 
 
 BFGS: Final Enthalpy     = -6.43292251E+003 eV
 BFGS: Final <frequency>  =    4715.02154 cm-1
 BFGS: Final bulk modulus =       2.70426 GPa
  
  **********************************************************
  *** There were at least    64 warnings during this run ***
  *** => please check the whole of this file carefully!  ***
  **********************************************************
 
 ***************************** Symmetrised Forces *****************************
 *                                                                            *
 *                        Cartesian components (eV/A)                         *
 * -------------------------------------------------------------------------- *
 *                   x                    y                    z              *
 *                                                                            *
 * Si        1      0.00000              0.00000             -0.00528         *
 * Si        2      0.00000             -0.00000              0.00528         *
 * Sc        1     -0.00000              0.00000              0.00000         *
 * Sc        2      0.00000              0.00000              0.00000         *
 * Te        1      0.00000             -0.00318              0.00843         *
 * Te        2      0.00276              0.00159              0.00843         *
 * Te        3     -0.00276              0.00159              0.00843         *
 * Te        4      0.00276             -0.00159             -0.00843         *
 * Te        5     -0.00276             -0.00159             -0.00843         *
 * Te        6      0.00000              0.00318             -0.00843         *
 *                                                                            *
 ******************************************************************************
 
 *********** Symmetrised Stress Tensor ***********
 *                                               *
 *          Cartesian components (GPa)           *
 * --------------------------------------------- *
 *             x             y             z     *
 *                                               *
 *  x     -0.006379      0.000000      0.000000  *
 *  y      0.000000     -0.006379      0.000000  *
 *  z      0.000000      0.000000     -0.000671  *
 *                                               *
 *  Pressure:    0.0045                          *
 *                                               *
 *************************************************

Writing analysis data to ScSiTe3.castep_bin

Writing model to ScSiTe3.check
 
 A BibTeX formatted list of references used in this run has been written to 
 ScSiTe3.bib
 
Initialisation time =     28.84 s
Calculation time    =   2096.00 s
Finalisation time   =      0.69 s
Total time          =   2125.53 s
  
Overall parallel efficiency rating: Poor (46%)                                  
  
Data was distributed by:-
G-vector (24-way); efficiency rating: Poor (48%)                                
k-point (2-way); efficiency rating: Excellent (91%)                             
