 Job started on host DESKTOP-1C867QN
 at Tue May 27 15:48:47 2025

 +-------------------------------------------------+
 |                                                 |
 |      CCC   AA    SSS  TTTTT  EEEEE  PPPP        |
 |     C     A  A  S       T    E      P   P       |
 |     C     AAAA   SS     T    EEE    PPPP        |
 |     C     A  A     S    T    E      P           |
 |      CCC  A  A  SSS     T    EEEEE  P           |
 |                                                 |
 +-------------------------------------------------+
 |                                                 |
 | Materials Studio CASTEP version 2017            |
 | Ab Initio Total Energy Program                  |
 |                                                 |
 | Authors:                                        |
 | M. Segall, M. Probert, C. Pickard, P. Hasnip,   |
 | S. Clark, K. Refson, J. R. Yates, M. Payne      |
 |                                                 |
 | Contributors:                                   |
 | P. Lindan, P. Haynes, J. White, V. Milman,      |
 | N. Govind, M. Gibson, P. Tulip, V. Cocula,      |
 | B. Montanari, D. Quigley, M. Glover,            |
 | L. Bernasconi, A. Perlov, M. Plummer,           |
 | E. McNellis, J. Meyer, J. Gale, D. Jochym       |
 | J. Aarons, B. Walker, R. Gillen, D. Jones       |
 | T. Green, I. J. Bush, C. J. Armstrong,          |
 | E. J. Higgins, E. L. Brown, M. S. McFly         |
 |                                                 |
 | Copyright (c) 2000 - 2016                       |
 |                                                 |
 | Please cite                                     |
 |                                                 |
 |     "First principles methods using CASTEP"     |
 |                                                 |
 |         Zeitschrift fuer Kristallographie       |
 |           220(5-6) pp. 567-570 (2005)           |
 |                                                 |
 | S. J. Clark, M. D. Segall, C. J. Pickard,       |
 | P. J. Hasnip, M. J. Probert, K. Refson,         |
 | M. C. Payne                                     |
 |                                                 |
 |       in all publications arising from          |
 |              your use of CASTEP                 |
 |                                                 |
 +-------------------------------------------------+
 
 
 This version was compiled for x86_64-windows-msvc2008 on May 05 2016
 Intel(R) Math Kernel Library Version 11.1.2 
 Fundamental constants values: CODATA 2010
 
License checkout of MS_castep successful
 
 
 Atomic calculation performed for Si: 1s2 2s2 2p6 3s2 3p2
 
 Converged in 54 iterations to an ae energy of -7886.857 eV
 
 Identity difference: 2.03E-02
 
   ============================================================                
   | Pseudopotential Report - Date of generation 27-05-2025   |                
   ------------------------------------------------------------                
   | Element: Si Ionic charge:  4.00 Level of theory: PBE     |                
   | Atomic Solver: Koelling-Harmon                           |                
   |                                                          |                
   |               Reference Electronic Structure             |                
   |         Orbital         Occupation         Energy        |                
   |            3s              2.000           -0.397        |                
   |            3p              2.000           -0.150        |                
   |                                                          |                
   |                 Pseudopotential Definition               |                
   |        Beta     l      e      Rc     scheme   norm       |                
   |          1      0   -0.397   1.599     qc      1         |                
   |          2      2    0.000   1.599     qc      1         |                
   |         loc     1   -0.150   1.599     qc      1         |                
   |                                                          |                
   | No charge augmentation                                   |                
   | Partial core correction Rc = 1.117                       |                
   ------------------------------------------------------------                
   | "1|1.6|6|7|9|30N:31L:32N[]"                              |                
   ------------------------------------------------------------                
   |      Author: Chris J. Pickard, Cambridge University      |                
   ============================================================                
 
 Doing a self consistent calculation for the test configuration
 
 Atomic calculation performed for Si: 1s2 2s2 2p6 3s2 3p2
 
 Converged in 54 iterations to an ae energy of -7886.857 eV
 
 ---------------------------------------
 AE eigenvalue nl 10 =      -65.63192903
 AE eigenvalue nl 20 =       -5.12654326
 AE eigenvalue nl 21 =       -3.51173659
 AE eigenvalue nl 30 =       -0.39736430
 AE eigenvalue nl 31 =       -0.14998156
 ---------------------------------------
 PS eigenvalue nl 30 =       -0.39735312
 PS eigenvalue nl 31 =       -0.14996116
 ---------------------------------------
 Maximum eigenvalue error:   2.04E-05
 
 Derived cutoff energies: C=   2 M=   6 F=   6 E=   8
 
 
 ***************************************
 
 Atomic calculation performed for Sc: 1s2 2s2 2p6 3s2 3p6 3d1 4s2
 
 Converged in 74 iterations to an ae energy of -20791.021 eV
 
 Identity difference: 1.25E-02
 
   ============================================================                
   | Pseudopotential Report - Date of generation 27-05-2025   |                
   ------------------------------------------------------------                
   | Element: Sc Ionic charge: 11.00 Level of theory: PBE     |                
   | Atomic Solver: Koelling-Harmon                           |                
   |                                                          |                
   |               Reference Electronic Structure             |                
   |         Orbital         Occupation         Energy        |                
   |            3s              2.000           -2.023        |                
   |            3p              6.000           -1.236        |                
   |            4s              2.000           -0.154        |                
   |            3d              1.000           -0.119        |                
   |                                                          |                
   |                 Pseudopotential Definition               |                
   |        Beta     l      e      Rc     scheme   norm       |                
   |          1      0   -2.023   1.802     qc      1         |                
   |          2      0   -0.154   1.802     qc      1         |                
   |          3      1   -1.236   1.802     qc      1         |                
   |          4      2   -0.119   1.802     qc      1         |                
   |         loc     3    0.000   1.802     pn      0         |                
   |                                                          |                
   | No charge augmentation                                   |                
   | Partial core correction Rc = 1.259                       |                
   ------------------------------------------------------------                
   | "3|1.8|13|16|19|30N:40N:31N:32N(qc=7)[]"                 |                
   ------------------------------------------------------------                
   |      Author: Chris J. Pickard, Cambridge University      |                
   ============================================================                
 
 Doing a self consistent calculation for the test configuration
 
 Atomic calculation performed for Sc: 1s2 2s2 2p6 3s2 3p6 3d1 4s2
 
 Converged in 74 iterations to an ae energy of -20791.021 eV
 
 ---------------------------------------
 AE eigenvalue nl 10 =     -161.59654852
 AE eigenvalue nl 20 =      -17.43125171
 AE eigenvalue nl 21 =      -14.26828408
 AE eigenvalue nl 30 =       -2.02264646
 AE eigenvalue nl 31 =       -1.23568058
 AE eigenvalue nl 32 =       -0.11882454
 AE eigenvalue nl 40 =       -0.15372733
 ---------------------------------------
 PS eigenvalue nl 30 =       -2.02279703
 PS eigenvalue nl 31 =       -1.23555522
 PS eigenvalue nl 32 =       -0.11872923
 PS eigenvalue nl 40 =       -0.15369834
 ---------------------------------------
 Maximum eigenvalue error:   1.51E-04
 
 Derived cutoff energies: C=  13 M=  15 F=  18 E=  20
 
 
 ***************************************
 
 Atomic calculation performed for Te:
 1s2 2s2 2p6 3s2 3p6 3d10 4s2 4p6 4d10 5s2 5p4
 
 Converged in 74 iterations to an ae energy of -184887.051 eV
 
 Identity difference: 6.08E-02
 
   ============================================================                
   | Pseudopotential Report - Date of generation 27-05-2025   |                
   ------------------------------------------------------------                
   | Element: Te Ionic charge:  6.00 Level of theory: PBE     |                
   | Atomic Solver: Koelling-Harmon                           |                
   |                                                          |                
   |               Reference Electronic Structure             |                
   |         Orbital         Occupation         Energy        |                
   |            5s              2.000           -0.555        |                
   |            5p              4.000           -0.219        |                
   |                                                          |                
   |                 Pseudopotential Definition               |                
   |        Beta     l      e      Rc     scheme   norm       |                
   |          1      0   -0.555   2.204     qc      1         |                
   |          2      1   -0.219   2.204     qc      1         |                
   |         loc     2    0.000   2.204     pn      0         |                
   |                                                          |                
   | No charge augmentation                                   |                
   | Partial core correction Rc = 1.540                       |                
   ------------------------------------------------------------                
   | "2|2.2|4.8|7.4|9.2|50N:51N[]"                            |                
   ------------------------------------------------------------                
   |      Author: Chris J. Pickard, Cambridge University      |                
   ============================================================                
 
 Doing a self consistent calculation for the test configuration
 
 Atomic calculation performed for Te:
 1s2 2s2 2p6 3s2 3p6 3d10 4s2 4p6 4d10 5s2 5p4
 
 Converged in 74 iterations to an ae energy of -184887.051 eV
 
 ---------------------------------------
 AE eigenvalue nl 10 =    -1162.35227488
 AE eigenvalue nl 20 =     -178.24632272
 AE eigenvalue nl 21 =     -160.00620108
 AE eigenvalue nl 30 =      -35.47173737
 AE eigenvalue nl 31 =      -29.54318713
 AE eigenvalue nl 32 =      -20.58152877
 AE eigenvalue nl 40 =       -6.04112586
 AE eigenvalue nl 41 =       -4.20445800
 AE eigenvalue nl 42 =       -1.53071897
 AE eigenvalue nl 50 =       -0.55522942
 AE eigenvalue nl 51 =       -0.21878005
 ---------------------------------------
 PS eigenvalue nl 50 =       -0.55521954
 PS eigenvalue nl 51 =       -0.21877245
 ---------------------------------------
 Maximum eigenvalue error:   9.88E-06
 
 Derived cutoff energies: C=   3 M=   5 F=   8 E=  10
 
 
 ***************************************
 
 Pseudo atomic calculation performed for Si 3s2 3p2
 
 Converged in 17 iterations to a total energy of -215.5478 eV
 
 
 Pseudo atomic calculation performed for Sc 3s2 3p6 3d1 4s2
 
 Converged in 26 iterations to a total energy of -1272.6953 eV
 
 
 Pseudo atomic calculation performed for Te 5s2 5p4
 
 Converged in 17 iterations to a total energy of -568.4318 eV
 
 Calculation parallelised over 48 processes.
 Data is distributed by G-vector(24-way) and k-point(2-way)

 ************************************ Title ************************************
 CASTEP calculation from Materials Studio

 ***************************** General Parameters ******************************
  
 output verbosity                               : normal  (1)
 write checkpoint data to                       : ScSiTe3__0_0_1_.check
 type of calculation                            : geometry optimization
 stress calculation                             : on
 density difference calculation                 : off
 electron localisation func (ELF) calculation   : off
 Hirshfeld analysis                             : off
 unlimited duration calculation
 timing information                             : on
 memory usage estimate                          : on
 write final potential to formatted file        : off
 write final density to formatted file          : off
 write BibTeX reference list                    : on
 write OTFG pseudopotential files               : on
 checkpoint writing                             : both castep_bin and check files
  
 output         length unit                     : A
 output           mass unit                     : amu
 output           time unit                     : ps
 output         charge unit                     : e
 output           spin unit                     : hbar/2
 output         energy unit                     : eV
 output          force unit                     : eV/A
 output       velocity unit                     : A/ps
 output       pressure unit                     : GPa
 output     inv_length unit                     : 1/A
 output      frequency unit                     : cm-1
 output force constant unit                     : eV/A**2
 output         volume unit                     : A**3
 output   IR intensity unit                     : (D/A)**2/amu
 output         dipole unit                     : D
 output         efield unit                     : eV/A/e
 output        entropy unit                     : J/mol/K
  
 wavefunctions paging                           : none
 random number generator seed                   : randomised (154847829)
 data distribution                              : optimal for this architecture
 optimization strategy                          : maximize speed(+++)

 *********************** Exchange-Correlation Parameters ***********************
  
 using functional                               : Perdew Burke Ernzerhof
 relativistic treatment                         : Koelling-Harmon
 DFT+D: Semi-empirical dispersion correction    : off

 ************************* Pseudopotential Parameters **************************
  
 pseudopotential representation                 : reciprocal space
 <beta|phi> representation                      : reciprocal space
 spin-orbit coupling                            : off

 **************************** Basis Set Parameters *****************************
  
 plane wave basis set cut-off                   :   570.0000   eV
 size of standard grid                          :     2.0000
 size of   fine   grid                          :     3.0000
 size of   fine   gmax                          :    36.6942   1/A
 largest prime factor in FFT                    :          5
 finite basis set correction                    : automatic
 number of sample energies                      :          3
           sample  spacing                      :     5.0000   eV

 **************************** Electronic Parameters ****************************
  
 number of  electrons                           :  66.00    
 net charge of system                           :  0.000    
 treating system as non-spin-polarized
 number of bands                                :         33

 ********************* Electronic Minimization Parameters **********************
  
 Method: Treating system as non-metallic,
         and number of  SD  steps               :          1
         and number of  CG  steps               :          4
  
 total energy / atom convergence tol.           : 0.5000E-06   eV
 eigen-energy convergence tolerance             : 0.1515E-06   eV
 max force / atom convergence tol.              : ignored
 convergence tolerance window                   :          3   cycles
 max. number of SCF cycles                      :       9999
 periodic dipole correction                     : NONE

 ************************** Density Mixing Parameters **************************
  
 density-mixing scheme                          : Pulay
 max. length of mixing history                  :         20
 charge density mixing amplitude                : 0.5000    
 cut-off energy for mixing                      :  570.0       eV
 charge density mixing g-vector                 :  1.500       1/A

 ********************** Geometry Optimization Parameters ***********************
  
 optimization method                            : BFGS
 variable cell method                           : fixed basis size
 max. number of steps                           :       9999
 estimated bulk modulus                         :  500.0       GPa
 estimated <frequency>                          :  1668.       cm-1
 geom line minimiser                            : on
 with line minimiser tolerance                  :     0.4000
 total energy convergence tolerance             : 0.5000E-05   eV/atom
        max ionic |force| tolerance             : 0.1000E-01   eV/A
 max ionic |displacement| tolerance             : 0.5000E-03   A
   max |stress component| tolerance             : 0.2000E-01   GPa
 convergence tolerance window                   :          2   steps
 backup results every                           :          5   steps

 *******************************************************************************
  
 
                           -------------------------------
                                      Unit Cell
                           -------------------------------
        Real Lattice(A)                      Reciprocal Lattice(1/A)
   6.0874153  -3.5145708   0.0000000        1.0321598   0.0000000   0.0000000
   0.0000000   7.0291417   0.0000000        0.5160799   0.8938766   0.0000000
   0.0000000   0.0000000  13.9998076        0.0000000   0.0000000   0.4488051
 
                       Lattice parameters(A)       Cell Angles
                    a =    7.029142          alpha =   90.000000
                    b =    7.029142          beta  =   90.000000
                    c =   13.999808          gamma =  120.000000
 
                       Current cell volume =  599.042028       A**3
 
                           -------------------------------
                                     Cell Contents
                           -------------------------------
                         Total number of ions in cell =   10
                      Total number of species in cell =    3
                        Max number of any one species =    6
 
            xxxxxxxxxxxxxxxxxxxxxxxxxxxxxxxxxxxxxxxxxxxxxxxxxxxxxxxxxxxx
            x  Element    Atom        Fractional coordinates of atoms  x
            x            Number           u          v          w      x
            x----------------------------------------------------------x
            x  Si           1         0.000000   0.000000  -0.582242   x 
            x  Si           2         0.000000   0.000000   0.582242   x 
            x  Sc           1         0.666667   0.333333  -0.500000   x 
            x  Sc           2        -0.666667  -0.333333   0.500000   x 
            x  Te           1        -0.000000   0.656350  -0.367271   x 
            x  Te           2        -0.656350  -0.656350  -0.367271   x 
            x  Te           3         0.656350   0.000000  -0.367271   x 
            x  Te           4        -0.656350   0.000000   0.367271   x 
            x  Te           5         0.656350   0.656350   0.367271   x 
            x  Te           6        -0.000000  -0.656350   0.367271   x 
            xxxxxxxxxxxxxxxxxxxxxxxxxxxxxxxxxxxxxxxxxxxxxxxxxxxxxxxxxxxx
 
 
                         No user defined ionic velocities
 
                           -------------------------------
                                   Details of Species
                           -------------------------------
 
                               Mass of species in AMU
                                    Si   28.0849991
                                    Sc   44.9560013
                                    Te  127.5999985
 
                          Electric Quadrupole Moment (Barn)
                                    Si    1.0000000 No Isotope Defined
                                    Sc   -0.2200000 Isotope 45
                                    Te    1.0000000 No Isotope Defined
 
                          Files used for pseudopotentials:
                                    Si 1|1.6|6|7|9|30N:31L:32N[]
                                    Sc 3|1.8|13|16|19|30N:40N:31N:32N(qc=7)[]
                                    Te 2|2.2|4.8|7.4|9.2|50N:51N[]
 
                           -------------------------------
                              k-Points For BZ Sampling
                           -------------------------------
                       MP grid size for SCF calculation is  2  2  2
                            with an offset of   0.250  0.250  0.000
                       Number of kpoints used =             2
 
                           -------------------------------
                               Symmetry and Constraints
                           -------------------------------
 
                      Maximum deviation from symmetry = 0.621716E-14     ANG
 
                      Number of symmetry operations   =          12
         There are no ionic constraints specified or generated for this cell
                      Point group of crystal =    20: D3d, -3m, -3 2/m
                      Space group of crystal =   162: P-31m, -P 3 2
 
             Set iprint > 1 for details on symmetry rotations/translations
 
                         Centre of mass is NOT constrained
 
                         Number of cell constraints= 4
                         Cell constraints are:  1 1 3 0 0 0
 
                         External pressure/stress (GPa)
                          0.00000   0.00000   0.00000
                                    0.00000   0.00000
                                              0.00000
  
+---------------- MEMORY AND SCRATCH DISK ESTIMATES PER PROCESS --------------+
|                                                     Memory          Disk    |
| Baseline code, static data and system overhead        0.0 MB         0.0 MB |
| BLAS internal memory storage                          0.0 MB         0.0 MB |
| Model and support data                               31.5 MB         0.0 MB |
| Electronic energy minimisation requirements           6.3 MB         0.0 MB |
| Force calculation requirements                        8.9 MB         0.0 MB |
| Stress calculation requirements                      10.3 MB         0.0 MB |
|                                               ----------------------------- |
| Approx. total storage required per process           41.8 MB         0.0 MB |
|                                                                             |
| Requirements will fluctuate during execution and may exceed these estimates |
+-----------------------------------------------------------------------------+
Calculating finite basis set correction with  3 cut-off energies.
Calculating total energy with cut-off of  560.000eV.
------------------------------------------------------------------------ <-- SCF
SCF loop      Energy                           Energy gain       Timer   <-- SCF
                                               per atom          (sec)   <-- SCF
------------------------------------------------------------------------ <-- SCF
Initial  -3.90544821E+003                                         28.83  <-- SCF
      1  -6.04826426E+003                    2.14281605E+002      29.58  <-- SCF
      2  -6.40926768E+003                    3.61003424E+001      30.09  <-- SCF
      3  -6.43163014E+003                    2.23624627E+000      30.67  <-- SCF
      4  -6.43304111E+003                    1.41096370E-001      32.12  <-- SCF
      5  -6.43286863E+003                   -1.72474758E-002      33.25  <-- SCF
      6  -6.43287753E+003                    8.89676646E-004      34.52  <-- SCF
      7  -6.43284059E+003                   -3.69375845E-003      35.73  <-- SCF
      8  -6.43283861E+003                   -1.98389570E-004      37.06  <-- SCF
      9  -6.43282725E+003                   -1.13554243E-003      38.09  <-- SCF
     10  -6.43282446E+003                   -2.79005044E-004      39.20  <-- SCF
     11  -6.43282534E+003                    8.80600768E-005      40.42  <-- SCF
     12  -6.43282923E+003                    3.88369558E-004      41.59  <-- SCF
     13  -6.43283192E+003                    2.69782450E-004      42.72  <-- SCF
     14  -6.43283385E+003                    1.92224704E-004      43.81  <-- SCF
     15  -6.43283442E+003                    5.72762403E-005      44.69  <-- SCF
     16  -6.43283447E+003                    5.24807992E-006      45.55  <-- SCF
     17  -6.43283448E+003                    1.16414077E-006      46.39  <-- SCF
     18  -6.43283449E+003                    3.27405247E-007      47.23  <-- SCF
     19  -6.43283449E+003                    1.20390544E-007      48.08  <-- SCF
------------------------------------------------------------------------ <-- SCF
 
Final energy =  -6432.834486673     eV
(energy not corrected for finite basis set)
 
Calculating total energy with cut-off of  565.000eV.
------------------------------------------------------------------------ <-- SCF
SCF loop      Energy                           Energy gain       Timer   <-- SCF
                                               per atom          (sec)   <-- SCF
------------------------------------------------------------------------ <-- SCF
Initial  -6.43283449E+003                                         49.09  <-- SCF
      1  -6.43284479E+003                    1.02977411E-003      49.62  <-- SCF
      2  -6.43284479E+003                    2.79626508E-007      50.50  <-- SCF
      3  -6.43284478E+003                   -3.51344887E-007      51.36  <-- SCF
      4  -6.43284479E+003                    8.94080680E-007      52.20  <-- SCF
      5  -6.43284479E+003                    6.49422103E-008      53.05  <-- SCF
      6  -6.43284479E+003                    3.00356872E-008      53.89  <-- SCF
------------------------------------------------------------------------ <-- SCF
 
Final energy =  -6432.844794438     eV
(energy not corrected for finite basis set)
 
Calculating total energy with cut-off of  570.000eV.
------------------------------------------------------------------------ <-- SCF
SCF loop      Energy                           Energy gain       Timer   <-- SCF
                                               per atom          (sec)   <-- SCF
------------------------------------------------------------------------ <-- SCF
Initial  -6.43284479E+003                                         54.89  <-- SCF
      1  -6.43285306E+003                    8.26464809E-004      55.41  <-- SCF
      2  -6.43285306E+003                    2.15605719E-007      56.25  <-- SCF
      3  -6.43285306E+003                   -1.99181922E-007      57.11  <-- SCF
      4  -6.43285306E+003                    5.19078132E-007      57.95  <-- SCF
      5  -6.43285306E+003                    3.27085371E-008      58.80  <-- SCF
      6  -6.43285307E+003                    1.39715187E-008      59.62  <-- SCF
------------------------------------------------------------------------ <-- SCF
 
Final energy =  -6432.853065015     eV
(energy not corrected for finite basis set)
 
 For future reference: finite basis dEtot/dlog(Ecut) =      -0.966845eV
 Total energy corrected for finite basis set =   -6432.852575 eV
 
+---------------- MEMORY AND SCRATCH DISK ESTIMATES PER PROCESS --------------+
|                                                     Memory          Disk    |
| Model and support data                               41.1 MB         0.0 MB |
| Electronic energy minimisation requirements           6.3 MB         0.0 MB |
| Geometry minimisation requirements                    7.2 MB         0.0 MB |
|                                               ----------------------------- |
| Approx. total storage required per process           54.6 MB         0.0 MB |
|                                                                             |
| Requirements will fluctuate during execution and may exceed these estimates |
+-----------------------------------------------------------------------------+
 
 
 *********************************** Forces ***********************************
 *                                                                            *
 *                        Cartesian components (eV/A)                         *
 * -------------------------------------------------------------------------- *
 *                   x                    y                    z              *
 *                                                                            *
 * Si        1      0.00000              0.00000              0.27245         *
 * Si        2      0.00000              0.00000             -0.27245         *
 * Sc        1      0.00000             -0.00000              0.00000         *
 * Sc        2     -0.00000              0.00000              0.00000         *
 * Te        1      0.00000             -0.14502              0.10517         *
 * Te        2      0.12559              0.07251              0.10517         *
 * Te        3     -0.12559              0.07251              0.10517         *
 * Te        4      0.12559             -0.07251             -0.10517         *
 * Te        5     -0.12559             -0.07251             -0.10517         *
 * Te        6     -0.00000              0.14502             -0.10517         *
 *                                                                            *
 ******************************************************************************
 
 ***************** Stress Tensor *****************
 *                                               *
 *          Cartesian components (GPa)           *
 * --------------------------------------------- *
 *             x             y             z     *
 *                                               *
 *  x     -0.580511     -0.000000      0.000000  *
 *  y     -0.000000     -0.580511     -0.000000  *
 *  z      0.000000     -0.000000     -0.157101  *
 *                                               *
 *  Pressure:    0.4394                          *
 *                                               *
 *************************************************
 BFGS: finished iteration     0 with enthalpy= -6.43285307E+003 eV
  
 +-----------+-----------------+-----------------+------------+-----+ <-- BFGS
 | Parameter |      value      |    tolerance    |    units   | OK? | <-- BFGS
 +-----------+-----------------+-----------------+------------+-----+ <-- BFGS
 |  dE/ion   |   0.000000E+000 |   5.000000E-006 |         eV | No  | <-- BFGS
 |  |F|max   |   2.724530E-001 |   1.000000E-002 |       eV/A | No  | <-- BFGS
 |  |dR|max  |   0.000000E+000 |   5.000000E-004 |          A | No  | <-- BFGS
 |   Smax    |   5.805115E-001 |   2.000000E-002 |        GPa | No  | <-- BFGS
 +-----------+-----------------+-----------------+------------+-----+ <-- BFGS
  

================================================================================
 Starting BFGS iteration          1 ...
================================================================================
  
 +------------+-------------+-------------+-----------------+ <-- min BFGS
 |    Step    |   lambda    |   F.delta'  |    enthalpy     | <-- min BFGS
 +------------+-------------+-------------+-----------------+ <-- min BFGS
 |  previous  |    0.000000 |    0.137821 |    -6432.853065 | <-- min BFGS
 +------------+-------------+-------------+-----------------+ <-- min BFGS
  

--------------------------------------------------------------------------------
 BFGS: starting iteration         1 with trial guess (lambda=  1.000000)
--------------------------------------------------------------------------------
 
                           -------------------------------
                                      Unit Cell
                           -------------------------------
        Real Lattice(A)              Reciprocal Lattice(1/A)
   6.0897711  -3.5159310   0.0000000        1.0317605  -0.0000000   0.0000000
   0.0000000   7.0318620   0.0000000        0.5158802   0.8935308   0.0000000
   0.0000000   0.0000000  14.0012738        0.0000000   0.0000000   0.4487581
 
                       Lattice parameters(A)       Cell Angles
                    a =    7.031862          alpha =   90.000000
                    b =    7.031862          beta  =   90.000000
                    c =   14.001274          gamma =  120.000000
 
                Current cell volume =  599.568574 A**3
 
                           -------------------------------
                                     Cell Contents
                           -------------------------------
 
            xxxxxxxxxxxxxxxxxxxxxxxxxxxxxxxxxxxxxxxxxxxxxxxxxxxxxxxxxxxx
            x  Element    Atom        Fractional coordinates of atoms  x
            x            Number           u          v          w      x
            x----------------------------------------------------------x
            x  Si           1         0.000000   0.000000  -0.582221   x
            x  Si           2         0.000000   0.000000   0.582221   x
            x  Sc           1         0.666667   0.333333  -0.500000   x
            x  Sc           2        -0.666667  -0.333333   0.500000   x
            x  Te           1        -0.000000   0.656328  -0.367263   x
            x  Te           2        -0.656328  -0.656328  -0.367263   x
            x  Te           3         0.656328   0.000000  -0.367263   x
            x  Te           4        -0.656328   0.000000   0.367263   x
            x  Te           5         0.656328   0.656328   0.367263   x
            x  Te           6        -0.000000  -0.656328   0.367263   x
            xxxxxxxxxxxxxxxxxxxxxxxxxxxxxxxxxxxxxxxxxxxxxxxxxxxxxxxxxxxx
 
 
------------------------------------------------------------------------ <-- SCF
SCF loop      Energy                           Energy gain       Timer   <-- SCF
                                               per atom          (sec)   <-- SCF
------------------------------------------------------------------------ <-- SCF
Initial  -6.43292501E+003                                         62.94  <-- SCF
      1  -6.43285751E+003                   -6.75000660E-003      63.47  <-- SCF
      2  -6.43285773E+003                    2.23726546E-005      64.72  <-- SCF
      3  -6.43285480E+003                   -2.93706510E-004      65.77  <-- SCF
      4  -6.43285460E+003                   -1.93320410E-005      66.95  <-- SCF
      5  -6.43285453E+003                   -7.32255037E-006      68.11  <-- SCF
      6  -6.43285449E+003                   -4.37640926E-006      69.05  <-- SCF
      7  -6.43285446E+003                   -2.50291438E-006      70.33  <-- SCF
      8  -6.43285444E+003                   -1.87563269E-006      71.20  <-- SCF
      9  -6.43285444E+003                    1.65633170E-007      72.05  <-- SCF
     10  -6.43285445E+003                    4.46454262E-007      72.88  <-- SCF
     11  -6.43285448E+003                    3.48533956E-006      73.72  <-- SCF
     12  -6.43285451E+003                    2.39141354E-006      74.56  <-- SCF
     13  -6.43285452E+003                    1.46502912E-006      75.39  <-- SCF
     14  -6.43285453E+003                    1.20138526E-006      76.23  <-- SCF
     15  -6.43285454E+003                    6.40770762E-007      77.08  <-- SCF
     16  -6.43285454E+003                    2.04349587E-007      77.92  <-- SCF
     17  -6.43285454E+003                    6.48515685E-008      78.75  <-- SCF
------------------------------------------------------------------------ <-- SCF
 
Final energy =  -6432.854542087     eV
(energy not corrected for finite basis set)
 
 
 *********************************** Forces ***********************************
 *                                                                            *
 *                        Cartesian components (eV/A)                         *
 * -------------------------------------------------------------------------- *
 *                   x                    y                    z              *
 *                                                                            *
 * Si        1      0.00000             -0.00000              0.25963         *
 * Si        2      0.00000              0.00000             -0.25963         *
 * Sc        1     -0.00000              0.00000              0.00000         *
 * Sc        2      0.00000              0.00000              0.00000         *
 * Te        1      0.00000             -0.13737              0.09849         *
 * Te        2      0.11896              0.06868              0.09849         *
 * Te        3     -0.11896              0.06868              0.09849         *
 * Te        4      0.11896             -0.06868             -0.09849         *
 * Te        5     -0.11896             -0.06868             -0.09849         *
 * Te        6     -0.00000              0.13737             -0.09849         *
 *                                                                            *
 ******************************************************************************
 
 ***************** Stress Tensor *****************
 *                                               *
 *          Cartesian components (GPa)           *
 * --------------------------------------------- *
 *             x             y             z     *
 *                                               *
 *  x     -0.543945     -0.000000      0.000000  *
 *  y     -0.000000     -0.543945      0.000000  *
 *  z      0.000000      0.000000     -0.145936  *
 *                                               *
 *  Pressure:    0.4113                          *
 *                                               *
 *************************************************
  
 +------------+-------------+-------------+-----------------+ <-- min BFGS
 |    Step    |   lambda    |   F.delta'  |    enthalpy     | <-- min BFGS
 +------------+-------------+-------------+-----------------+ <-- min BFGS
 |  previous  |    0.000000 |    0.137821 |    -6432.853065 | <-- min BFGS
 | trial step |    1.000000 |    0.129419 |    -6432.854542 | <-- min BFGS
 +------------+-------------+-------------+-----------------+ <-- min BFGS
  

--------------------------------------------------------------------------------
 BFGS: improving iteration         1 with line minimization (lambda= 16.404249)
--------------------------------------------------------------------------------
 
+---------------- MEMORY AND SCRATCH DISK ESTIMATES PER PROCESS --------------+
|                                                     Memory          Disk    |
| Model and support data                               41.1 MB         0.0 MB |
| Electronic energy minimisation requirements           6.3 MB         0.0 MB |
| Geometry minimisation requirements                    7.2 MB         0.0 MB |
|                                               ----------------------------- |
| Approx. total storage required per process           54.6 MB         0.0 MB |
|                                                                             |
| Requirements will fluctuate during execution and may exceed these estimates |
+-----------------------------------------------------------------------------+
 
 
                           -------------------------------
                                      Unit Cell
                           -------------------------------
        Real Lattice(A)              Reciprocal Lattice(1/A)
   6.1260616  -3.5368833   0.0000000        1.0256484  -0.0000000   0.0000000
   0.0000000   7.0737667   0.0000000        0.5128242   0.8882376   0.0000000
   0.0000000   0.0000000  14.0238603        0.0000000   0.0000000   0.4480354
 
                       Lattice parameters(A)       Cell Angles
                    a =    7.073767          alpha =   90.000000
                    b =    7.073767          beta  =   90.000000
                    c =   14.023860          gamma =  120.000000
 
                Current cell volume =  607.714603 A**3
 
                           -------------------------------
                                     Cell Contents
                           -------------------------------
 
            xxxxxxxxxxxxxxxxxxxxxxxxxxxxxxxxxxxxxxxxxxxxxxxxxxxxxxxxxxxx
            x  Element    Atom        Fractional coordinates of atoms  x
            x            Number           u          v          w      x
            x----------------------------------------------------------x
            x  Si           1         0.000000   0.000000  -0.581900   x
            x  Si           2         0.000000   0.000000   0.581900   x
            x  Sc           1         0.666667   0.333333  -0.500000   x
            x  Sc           2        -0.666667  -0.333333   0.500000   x
            x  Te           1        -0.000000   0.655987  -0.367139   x
            x  Te           2        -0.655987  -0.655987  -0.367139   x
            x  Te           3         0.655987   0.000000  -0.367139   x
            x  Te           4        -0.655987   0.000000   0.367139   x
            x  Te           5         0.655987   0.655987   0.367139   x
            x  Te           6        -0.000000  -0.655987   0.367139   x
            xxxxxxxxxxxxxxxxxxxxxxxxxxxxxxxxxxxxxxxxxxxxxxxxxxxxxxxxxxxx
 
 
------------------------------------------------------------------------ <-- SCF
SCF loop      Energy                           Energy gain       Timer   <-- SCF
                                               per atom          (sec)   <-- SCF
------------------------------------------------------------------------ <-- SCF
Initial  -6.43491027E+003                                         81.95  <-- SCF
      1  -6.43353058E+003                   -1.37969574E-001      82.48  <-- SCF
      2  -6.43357694E+003                    4.63588031E-003      83.77  <-- SCF
      3  -6.43293115E+003                   -6.45783598E-002      84.78  <-- SCF
      4  -6.43287734E+003                   -5.38168720E-003      85.98  <-- SCF
      5  -6.43287825E+003                    9.08465827E-005      87.28  <-- SCF
      6  -6.43287080E+003                   -7.44237206E-004      88.39  <-- SCF
      7  -6.43293150E+003                    6.06944079E-003      89.61  <-- SCF
      8  -6.43285372E+003                   -7.77794475E-003      90.81  <-- SCF
      9  -6.43285924E+003                    5.52627523E-004      92.11  <-- SCF
     10  -6.43285910E+003                   -1.42679579E-005      93.25  <-- SCF
     11  -6.43286013E+003                    1.03192511E-004      94.41  <-- SCF
     12  -6.43286018E+003                    4.73178399E-006      95.55  <-- SCF
     13  -6.43286048E+003                    2.97537622E-005      96.53  <-- SCF
     14  -6.43286075E+003                    2.68867355E-005      97.72  <-- SCF
     15  -6.43286105E+003                    3.05610904E-005      98.89  <-- SCF
     16  -6.43286106E+003                    1.08427035E-006      99.92  <-- SCF
     17  -6.43286114E+003                    8.04476742E-006     100.95  <-- SCF
     18  -6.43286117E+003                    3.04433896E-006     101.78  <-- SCF
     19  -6.43286119E+003                    1.65007494E-006     102.69  <-- SCF
     20  -6.43286120E+003                    5.79105423E-007     103.52  <-- SCF
     21  -6.43286120E+003                    2.26074536E-007     104.36  <-- SCF
     22  -6.43286120E+003                    7.31210074E-008     105.20  <-- SCF
------------------------------------------------------------------------ <-- SCF
 
Final energy =  -6432.861199598     eV
(energy not corrected for finite basis set)
 
 
 *********************************** Forces ***********************************
 *                                                                            *
 *                        Cartesian components (eV/A)                         *
 * -------------------------------------------------------------------------- *
 *                   x                    y                    z              *
 *                                                                            *
 * Si        1      0.00000              0.00000              0.05831         *
 * Si        2     -0.00000              0.00000             -0.05831         *
 * Sc        1     -0.00000              0.00000              0.00000         *
 * Sc        2      0.00000              0.00000             -0.00000         *
 * Te        1      0.00000             -0.02019             -0.00008         *
 * Te        2      0.01748              0.01009             -0.00008         *
 * Te        3     -0.01748              0.01009             -0.00008         *
 * Te        4      0.01748             -0.01009              0.00008         *
 * Te        5     -0.01748             -0.01009              0.00008         *
 * Te        6     -0.00000              0.02019              0.00008         *
 *                                                                            *
 ******************************************************************************
 
 ***************** Stress Tensor *****************
 *                                               *
 *          Cartesian components (GPa)           *
 * --------------------------------------------- *
 *             x             y             z     *
 *                                               *
 *  x      0.003202     -0.000000      0.000000  *
 *  y     -0.000000      0.003202     -0.000000  *
 *  z      0.000000     -0.000000      0.042440  *
 *                                               *
 *  Pressure:   -0.0163                          *
 *                                               *
 *************************************************
  
 +------------+-------------+-------------+-----------------+ <-- min BFGS
 |    Step    |   lambda    |   F.delta'  |    enthalpy     | <-- min BFGS
 +------------+-------------+-------------+-----------------+ <-- min BFGS
 |  previous  |    0.000000 |    0.137821 |    -6432.853065 | <-- min BFGS
 | trial step |    1.000000 |    0.129419 |    -6432.854542 | <-- min BFGS
 |  line step |   16.404249 |    0.001757 |    -6432.861200 | <-- min BFGS
 +------------+-------------+-------------+-----------------+ <-- min BFGS
  
 BFGS: finished iteration     1 with enthalpy= -6.43286120E+003 eV
  
 +-----------+-----------------+-----------------+------------+-----+ <-- BFGS
 | Parameter |      value      |    tolerance    |    units   | OK? | <-- BFGS
 +-----------+-----------------+-----------------+------------+-----+ <-- BFGS
 |  dE/ion   |   8.134582E-004 |   5.000000E-006 |         eV | No  | <-- BFGS
 |  |F|max   |   5.830913E-002 |   1.000000E-002 |       eV/A | No  | <-- BFGS
 |  |dR|max  |   4.800779E-003 |   5.000000E-004 |          A | No  | <-- BFGS
 |   Smax    |   4.244048E-002 |   2.000000E-002 |        GPa | No  | <-- BFGS
 +-----------+-----------------+-----------------+------------+-----+ <-- BFGS
  

================================================================================
 Starting BFGS iteration          2 ...
================================================================================
  
 +------------+-------------+-------------+-----------------+ <-- min BFGS
 |    Step    |   lambda    |   F.delta'  |    enthalpy     | <-- min BFGS
 +------------+-------------+-------------+-----------------+ <-- min BFGS
 |  previous  |    0.000000 |    0.006633 |    -6432.861200 | <-- min BFGS
 +------------+-------------+-------------+-----------------+ <-- min BFGS
  

--------------------------------------------------------------------------------
 BFGS: starting iteration         2 with trial guess (lambda=  1.000000)
--------------------------------------------------------------------------------
 
                           -------------------------------
                                      Unit Cell
                           -------------------------------
        Real Lattice(A)              Reciprocal Lattice(1/A)
   6.1265333  -3.5371557   0.0000000        1.0255694  -0.0000000  -0.0000000
   0.0000000   7.0743113   0.0000000        0.5127847   0.8881692  -0.0000000
   0.0000000   0.0000000  14.0237558       -0.0000000   0.0000000   0.4480387
 
                       Lattice parameters(A)       Cell Angles
                    a =    7.074311          alpha =   90.000000
                    b =    7.074311          beta  =   90.000000
                    c =   14.023756          gamma =  120.000000
 
                Current cell volume =  607.803663 A**3
 
                           -------------------------------
                                     Cell Contents
                           -------------------------------
 
            xxxxxxxxxxxxxxxxxxxxxxxxxxxxxxxxxxxxxxxxxxxxxxxxxxxxxxxxxxxx
            x  Element    Atom        Fractional coordinates of atoms  x
            x            Number           u          v          w      x
            x----------------------------------------------------------x
            x  Si           1         0.000000   0.000000  -0.581891   x
            x  Si           2         0.000000   0.000000   0.581891   x
            x  Sc           1         0.666667   0.333333  -0.500000   x
            x  Sc           2        -0.666667  -0.333333   0.500000   x
            x  Te           1        -0.000000   0.655979  -0.367137   x
            x  Te           2        -0.655979  -0.655979  -0.367137   x
            x  Te           3         0.655979   0.000000  -0.367137   x
            x  Te           4        -0.655979   0.000000   0.367137   x
            x  Te           5         0.655979   0.655979   0.367137   x
            x  Te           6        -0.000000  -0.655979   0.367137   x
            xxxxxxxxxxxxxxxxxxxxxxxxxxxxxxxxxxxxxxxxxxxxxxxxxxxxxxxxxxxx
 
 
------------------------------------------------------------------------ <-- SCF
SCF loop      Energy                           Energy gain       Timer   <-- SCF
                                               per atom          (sec)   <-- SCF
------------------------------------------------------------------------ <-- SCF
Initial  -6.43286650E+003                                        108.45  <-- SCF
      1  -6.43286126E+003                   -5.24546565E-004     109.06  <-- SCF
      2  -6.43286127E+003                    9.96374421E-007     109.97  <-- SCF
      3  -6.43286113E+003                   -1.36789503E-005     111.03  <-- SCF
      4  -6.43286112E+003                   -7.76297402E-007     111.95  <-- SCF
      5  -6.43286112E+003                   -4.92169431E-008     112.78  <-- SCF
      6  -6.43286112E+003                    1.33837392E-008     113.61  <-- SCF
------------------------------------------------------------------------ <-- SCF
 
Final energy =  -6432.861123475     eV
(energy not corrected for finite basis set)
 
 
 *********************************** Forces ***********************************
 *                                                                            *
 *                        Cartesian components (eV/A)                         *
 * -------------------------------------------------------------------------- *
 *                   x                    y                    z              *
 *                                                                            *
 * Si        1      0.00000             -0.00000              0.05306         *
 * Si        2     -0.00000              0.00000             -0.05306         *
 * Sc        1      0.00000              0.00000             -0.00000         *
 * Sc        2     -0.00000              0.00000              0.00000         *
 * Te        1      0.00000             -0.01869             -0.00215         *
 * Te        2      0.01619              0.00935             -0.00215         *
 * Te        3     -0.01619              0.00935             -0.00215         *
 * Te        4      0.01619             -0.00935              0.00215         *
 * Te        5     -0.01619             -0.00935              0.00215         *
 * Te        6     -0.00000              0.01869              0.00215         *
 *                                                                            *
 ******************************************************************************
 
 ***************** Stress Tensor *****************
 *                                               *
 *          Cartesian components (GPa)           *
 * --------------------------------------------- *
 *             x             y             z     *
 *                                               *
 *  x      0.008055      0.000000      0.000000  *
 *  y      0.000000      0.008055      0.000000  *
 *  z      0.000000      0.000000      0.041143  *
 *                                               *
 *  Pressure:   -0.0191                          *
 *                                               *
 *************************************************
  
 +------------+-------------+-------------+-----------------+ <-- min BFGS
 |    Step    |   lambda    |   F.delta'  |    enthalpy     | <-- min BFGS
 +------------+-------------+-------------+-----------------+ <-- min BFGS
 |  previous  |    0.000000 |    0.006633 |    -6432.861200 | <-- min BFGS
 | trial step |    1.000000 |    0.005020 |    -6432.861123 | <-- min BFGS
 +------------+-------------+-------------+-----------------+ <-- min BFGS
  
 BFGS: Warning - trial step suggests complex energy landscape
                 in which simple line minimization will fail.
  
               - This is usually an indication that the forces/streses
                 are not accurate enough. Consider making the following changes:
  
                 1) Increase cutoff_energy or basis_precision
                 2) Reduce elec_energy_tol and/or elec_force_tol
                 3) Increase grid_scale
  
               - Proceeding with a bisection search to find root instead.
  

--------------------------------------------------------------------------------
 BFGS: improving iteration         2 with bisection search (lambda=  0.500000)
--------------------------------------------------------------------------------
 
                           -------------------------------
                                      Unit Cell
                           -------------------------------
        Real Lattice(A)              Reciprocal Lattice(1/A)
   6.1262975  -3.5370195   0.0000000        1.0256089  -0.0000000  -0.0000000
   0.0000000   7.0740390   0.0000000        0.5128045   0.8882034  -0.0000000
   0.0000000   0.0000000  14.0238081       -0.0000000   0.0000000   0.4480370
 
                       Lattice parameters(A)       Cell Angles
                    a =    7.074039          alpha =   90.000000
                    b =    7.074039          beta  =   90.000000
                    c =   14.023808          gamma =  120.000000
 
                Current cell volume =  607.759133 A**3
 
                           -------------------------------
                                     Cell Contents
                           -------------------------------
 
            xxxxxxxxxxxxxxxxxxxxxxxxxxxxxxxxxxxxxxxxxxxxxxxxxxxxxxxxxxxx
            x  Element    Atom        Fractional coordinates of atoms  x
            x            Number           u          v          w      x
            x----------------------------------------------------------x
            x  Si           1         0.000000   0.000000  -0.581895   x
            x  Si           2         0.000000   0.000000   0.581895   x
            x  Sc           1         0.666667   0.333333  -0.500000   x
            x  Sc           2        -0.666667  -0.333333   0.500000   x
            x  Te           1        -0.000000   0.655983  -0.367138   x
            x  Te           2        -0.655983  -0.655983  -0.367138   x
            x  Te           3         0.655983   0.000000  -0.367138   x
            x  Te           4        -0.655983   0.000000   0.367138   x
            x  Te           5         0.655983   0.655983   0.367138   x
            x  Te           6        -0.000000  -0.655983   0.367138   x
            xxxxxxxxxxxxxxxxxxxxxxxxxxxxxxxxxxxxxxxxxxxxxxxxxxxxxxxxxxxx
 
 
------------------------------------------------------------------------ <-- SCF
SCF loop      Energy                           Energy gain       Timer   <-- SCF
                                               per atom          (sec)   <-- SCF
------------------------------------------------------------------------ <-- SCF
Initial  -6.43285858E+003                                        116.88  <-- SCF
      1  -6.43286119E+003                    2.61567901E-004     117.47  <-- SCF
      2  -6.43286120E+003                    1.64704169E-007     118.30  <-- SCF
      3  -6.43286117E+003                   -2.99238157E-006     119.20  <-- SCF
      4  -6.43286116E+003                   -4.30787927E-007     120.06  <-- SCF
      5  -6.43286116E+003                    1.09044544E-007     120.91  <-- SCF
------------------------------------------------------------------------ <-- SCF
 
Final energy =  -6432.861162495     eV
(energy not corrected for finite basis set)
 
 
 *********************************** Forces ***********************************
 *                                                                            *
 *                        Cartesian components (eV/A)                         *
 * -------------------------------------------------------------------------- *
 *                   x                    y                    z              *
 *                                                                            *
 * Si        1     -0.00000              0.00000              0.05579         *
 * Si        2      0.00000              0.00000             -0.05579         *
 * Sc        1      0.00000              0.00000              0.00000         *
 * Sc        2     -0.00000              0.00000             -0.00000         *
 * Te        1      0.00000             -0.01825             -0.00080         *
 * Te        2      0.01581              0.00913             -0.00080         *
 * Te        3     -0.01581              0.00913             -0.00080         *
 * Te        4      0.01581             -0.00913              0.00080         *
 * Te        5     -0.01581             -0.00913              0.00080         *
 * Te        6     -0.00000              0.01825              0.00080         *
 *                                                                            *
 ******************************************************************************
 
 ***************** Stress Tensor *****************
 *                                               *
 *          Cartesian components (GPa)           *
 * --------------------------------------------- *
 *             x             y             z     *
 *                                               *
 *  x      0.005380      0.000000      0.000000  *
 *  y      0.000000      0.005380     -0.000000  *
 *  z      0.000000     -0.000000      0.040888  *
 *                                               *
 *  Pressure:   -0.0172                          *
 *                                               *
 *************************************************
  
 +------------+-------------+-------------+-----------------+ <-- min BFGS
 |    Step    |   lambda    |   F.delta'  |    enthalpy     | <-- min BFGS
 +------------+-------------+-------------+-----------------+ <-- min BFGS
 |  previous  |    0.000000 |    0.006633 |    -6432.861200 | <-- min BFGS
 | trial step |    0.500000 |    0.005762 |    -6432.861162 | <-- min BFGS
 +------------+-------------+-------------+-----------------+ <-- min BFGS
  

--------------------------------------------------------------------------------
 BFGS: improving iteration         2 with bisection search (lambda=  0.250000)
--------------------------------------------------------------------------------
 
                           -------------------------------
                                      Unit Cell
                           -------------------------------
        Real Lattice(A)              Reciprocal Lattice(1/A)
   6.1261796  -3.5369514   0.0000000        1.0256287  -0.0000000  -0.0000000
   0.0000000   7.0739029   0.0000000        0.5128143   0.8882205  -0.0000000
   0.0000000   0.0000000  14.0238342       -0.0000000   0.0000000   0.4480362
 
                       Lattice parameters(A)       Cell Angles
                    a =    7.073903          alpha =   90.000000
                    b =    7.073903          beta  =   90.000000
                    c =   14.023834          gamma =  120.000000
 
                Current cell volume =  607.736868 A**3
 
                           -------------------------------
                                     Cell Contents
                           -------------------------------
 
            xxxxxxxxxxxxxxxxxxxxxxxxxxxxxxxxxxxxxxxxxxxxxxxxxxxxxxxxxxxx
            x  Element    Atom        Fractional coordinates of atoms  x
            x            Number           u          v          w      x
            x----------------------------------------------------------x
            x  Si           1         0.000000   0.000000  -0.581897   x
            x  Si           2         0.000000   0.000000   0.581897   x
            x  Sc           1         0.666667   0.333333  -0.500000   x
            x  Sc           2        -0.666667  -0.333333   0.500000   x
            x  Te           1        -0.000000   0.655985  -0.367138   x
            x  Te           2        -0.655985  -0.655985  -0.367138   x
            x  Te           3         0.655985   0.000000  -0.367138   x
            x  Te           4        -0.655985   0.000000   0.367138   x
            x  Te           5         0.655985   0.655985   0.367138   x
            x  Te           6        -0.000000  -0.655985   0.367138   x
            xxxxxxxxxxxxxxxxxxxxxxxxxxxxxxxxxxxxxxxxxxxxxxxxxxxxxxxxxxxx
 
 
------------------------------------------------------------------------ <-- SCF
SCF loop      Energy                           Energy gain       Timer   <-- SCF
                                               per atom          (sec)   <-- SCF
------------------------------------------------------------------------ <-- SCF
Initial  -6.43285988E+003                                        124.12  <-- SCF
      1  -6.43286119E+003                    1.30496444E-004     124.48  <-- SCF
      2  -6.43286119E+003                    8.02189089E-008     125.31  <-- SCF
      3  -6.43286118E+003                   -3.68773478E-007     126.14  <-- SCF
      4  -6.43286118E+003                   -6.52903923E-008     126.98  <-- SCF
------------------------------------------------------------------------ <-- SCF
 
Final energy =  -6432.861182450     eV
(energy not corrected for finite basis set)
 
 
 *********************************** Forces ***********************************
 *                                                                            *
 *                        Cartesian components (eV/A)                         *
 * -------------------------------------------------------------------------- *
 *                   x                    y                    z              *
 *                                                                            *
 * Si        1     -0.00000              0.00000              0.05695         *
 * Si        2      0.00000             -0.00000             -0.05695         *
 * Sc        1      0.00000              0.00000              0.00000         *
 * Sc        2     -0.00000              0.00000              0.00000         *
 * Te        1      0.00000             -0.02180             -0.00058         *
 * Te        2      0.01888              0.01090             -0.00058         *
 * Te        3     -0.01888              0.01090             -0.00058         *
 * Te        4      0.01888             -0.01090              0.00058         *
 * Te        5     -0.01888             -0.01090              0.00058         *
 * Te        6     -0.00000              0.02180              0.00058         *
 *                                                                            *
 ******************************************************************************
 
 ***************** Stress Tensor *****************
 *                                               *
 *          Cartesian components (GPa)           *
 * --------------------------------------------- *
 *             x             y             z     *
 *                                               *
 *  x      0.003580      0.000000      0.000000  *
 *  y      0.000000      0.003580      0.000000  *
 *  z      0.000000      0.000000      0.042070  *
 *                                               *
 *  Pressure:   -0.0164                          *
 *                                               *
 *************************************************
  
 +------------+-------------+-------------+-----------------+ <-- min BFGS
 |    Step    |   lambda    |   F.delta'  |    enthalpy     | <-- min BFGS
 +------------+-------------+-------------+-----------------+ <-- min BFGS
 |  previous  |    0.000000 |    0.006633 |    -6432.861200 | <-- min BFGS
 | trial step |    0.250000 |    0.006597 |    -6432.861182 | <-- min BFGS
 +------------+-------------+-------------+-----------------+ <-- min BFGS
  

--------------------------------------------------------------------------------
 BFGS: improving iteration         2 with bisection search (lambda=  0.125000)
--------------------------------------------------------------------------------
 
                           -------------------------------
                                      Unit Cell
                           -------------------------------
        Real Lattice(A)              Reciprocal Lattice(1/A)
   6.1261206  -3.5369174   0.0000000        1.0256385  -0.0000000  -0.0000000
   0.0000000   7.0738348   0.0000000        0.5128193   0.8882290  -0.0000000
   0.0000000   0.0000000  14.0238473       -0.0000000   0.0000000   0.4480358
 
                       Lattice parameters(A)       Cell Angles
                    a =    7.073835          alpha =   90.000000
                    b =    7.073835          beta  =   90.000000
                    c =   14.023847          gamma =  120.000000
 
                Current cell volume =  607.725736 A**3
 
                           -------------------------------
                                     Cell Contents
                           -------------------------------
 
            xxxxxxxxxxxxxxxxxxxxxxxxxxxxxxxxxxxxxxxxxxxxxxxxxxxxxxxxxxxx
            x  Element    Atom        Fractional coordinates of atoms  x
            x            Number           u          v          w      x
            x----------------------------------------------------------x
            x  Si           1         0.000000   0.000000  -0.581898   x
            x  Si           2         0.000000   0.000000   0.581898   x
            x  Sc           1         0.666667   0.333333  -0.500000   x
            x  Sc           2        -0.666667  -0.333333   0.500000   x
            x  Te           1        -0.000000   0.655986  -0.367139   x
            x  Te           2        -0.655986  -0.655986  -0.367139   x
            x  Te           3         0.655986   0.000000  -0.367139   x
            x  Te           4        -0.655986   0.000000   0.367139   x
            x  Te           5         0.655986   0.655986   0.367139   x
            x  Te           6        -0.000000  -0.655986   0.367139   x
            xxxxxxxxxxxxxxxxxxxxxxxxxxxxxxxxxxxxxxxxxxxxxxxxxxxxxxxxxxxx
 
 
------------------------------------------------------------------------ <-- SCF
SCF loop      Energy                           Energy gain       Timer   <-- SCF
                                               per atom          (sec)   <-- SCF
------------------------------------------------------------------------ <-- SCF
Initial  -6.43286054E+003                                        130.20  <-- SCF
      1  -6.43286120E+003                    6.58981643E-005     131.23  <-- SCF
      2  -6.43286120E+003                    8.09700292E-008     132.09  <-- SCF
      3  -6.43286119E+003                   -4.06461435E-007     132.92  <-- SCF
      4  -6.43286119E+003                   -2.60047572E-008     133.77  <-- SCF
------------------------------------------------------------------------ <-- SCF
 
Final energy =  -6432.861192533     eV
(energy not corrected for finite basis set)
 
 
 *********************************** Forces ***********************************
 *                                                                            *
 *                        Cartesian components (eV/A)                         *
 * -------------------------------------------------------------------------- *
 *                   x                    y                    z              *
 *                                                                            *
 * Si        1     -0.00000              0.00000              0.05712         *
 * Si        2     -0.00000              0.00000             -0.05712         *
 * Sc        1      0.00000              0.00000              0.00000         *
 * Sc        2     -0.00000              0.00000             -0.00000         *
 * Te        1      0.00000             -0.02341             -0.00074         *
 * Te        2      0.02028              0.01171             -0.00074         *
 * Te        3     -0.02028              0.01171             -0.00074         *
 * Te        4      0.02028             -0.01171              0.00074         *
 * Te        5     -0.02028             -0.01171              0.00074         *
 * Te        6     -0.00000              0.02341              0.00074         *
 *                                                                            *
 ******************************************************************************
 
 ***************** Stress Tensor *****************
 *                                               *
 *          Cartesian components (GPa)           *
 * --------------------------------------------- *
 *             x             y             z     *
 *                                               *
 *  x      0.003352     -0.000000      0.000000  *
 *  y     -0.000000      0.003352      0.000000  *
 *  z      0.000000      0.000000      0.042170  *
 *                                               *
 *  Pressure:   -0.0163                          *
 *                                               *
 *************************************************
  
 +------------+-------------+-------------+-----------------+ <-- min BFGS
 |    Step    |   lambda    |   F.delta'  |    enthalpy     | <-- min BFGS
 +------------+-------------+-------------+-----------------+ <-- min BFGS
 |  previous  |    0.000000 |    0.006633 |    -6432.861200 | <-- min BFGS
 | trial step |    0.125000 |    0.006819 |    -6432.861193 | <-- min BFGS
 +------------+-------------+-------------+-----------------+ <-- min BFGS
  

--------------------------------------------------------------------------------
 BFGS: improving iteration         2 with bisection search (lambda=  0.062500)
--------------------------------------------------------------------------------
 
                           -------------------------------
                                      Unit Cell
                           -------------------------------
        Real Lattice(A)              Reciprocal Lattice(1/A)
   6.1260911  -3.5369004   0.0000000        1.0256435  -0.0000000  -0.0000000
   0.0000000   7.0738007   0.0000000        0.5128217   0.8882333  -0.0000000
   0.0000000   0.0000000  14.0238538       -0.0000000   0.0000000   0.4480356
 
                       Lattice parameters(A)       Cell Angles
                    a =    7.073801          alpha =   90.000000
                    b =    7.073801          beta  =   90.000000
                    c =   14.023854          gamma =  120.000000
 
                Current cell volume =  607.720170 A**3
 
                           -------------------------------
                                     Cell Contents
                           -------------------------------
 
            xxxxxxxxxxxxxxxxxxxxxxxxxxxxxxxxxxxxxxxxxxxxxxxxxxxxxxxxxxxx
            x  Element    Atom        Fractional coordinates of atoms  x
            x            Number           u          v          w      x
            x----------------------------------------------------------x
            x  Si           1         0.000000   0.000000  -0.581899   x
            x  Si           2         0.000000   0.000000   0.581899   x
            x  Sc           1         0.666667   0.333333  -0.500000   x
            x  Sc           2        -0.666667  -0.333333   0.500000   x
            x  Te           1        -0.000000   0.655987  -0.367139   x
            x  Te           2        -0.655987  -0.655987  -0.367139   x
            x  Te           3         0.655987   0.000000  -0.367139   x
            x  Te           4        -0.655987   0.000000   0.367139   x
            x  Te           5         0.655987   0.655987   0.367139   x
            x  Te           6        -0.000000  -0.655987   0.367139   x
            xxxxxxxxxxxxxxxxxxxxxxxxxxxxxxxxxxxxxxxxxxxxxxxxxxxxxxxxxxxx
 
 
------------------------------------------------------------------------ <-- SCF
SCF loop      Energy                           Energy gain       Timer   <-- SCF
                                               per atom          (sec)   <-- SCF
------------------------------------------------------------------------ <-- SCF
Initial  -6.43286087E+003                                        137.00  <-- SCF
      1  -6.43286120E+003                    3.36804435E-005     137.42  <-- SCF
      2  -6.43286120E+003                    6.08370345E-008     138.23  <-- SCF
      3  -6.43286120E+003                   -6.72758960E-007     139.08  <-- SCF
      4  -6.43286120E+003                   -3.92947611E-008     139.92  <-- SCF
      5  -6.43286120E+003                   -4.91170206E-008     140.75  <-- SCF
------------------------------------------------------------------------ <-- SCF
 
Final energy =  -6432.861196402     eV
(energy not corrected for finite basis set)
 
 
 *********************************** Forces ***********************************
 *                                                                            *
 *                        Cartesian components (eV/A)                         *
 * -------------------------------------------------------------------------- *
 *                   x                    y                    z              *
 *                                                                            *
 * Si        1      0.00000             -0.00000              0.05814         *
 * Si        2      0.00000              0.00000             -0.05814         *
 * Sc        1      0.00000              0.00000              0.00000         *
 * Sc        2     -0.00000             -0.00000              0.00000         *
 * Te        1      0.00000             -0.02120             -0.00032         *
 * Te        2      0.01836              0.01060             -0.00032         *
 * Te        3     -0.01836              0.01060             -0.00032         *
 * Te        4      0.01836             -0.01060              0.00032         *
 * Te        5     -0.01836             -0.01060              0.00032         *
 * Te        6      0.00000              0.02120              0.00032         *
 *                                                                            *
 ******************************************************************************
 
 ***************** Stress Tensor *****************
 *                                               *
 *          Cartesian components (GPa)           *
 * --------------------------------------------- *
 *             x             y             z     *
 *                                               *
 *  x      0.001807      0.000000      0.000000  *
 *  y      0.000000      0.001807     -0.000000  *
 *  z      0.000000     -0.000000      0.040730  *
 *                                               *
 *  Pressure:   -0.0148                          *
 *                                               *
 *************************************************
  
 +------------+-------------+-------------+-----------------+ <-- min BFGS
 |    Step    |   lambda    |   F.delta'  |    enthalpy     | <-- min BFGS
 +------------+-------------+-------------+-----------------+ <-- min BFGS
 |  previous  |    0.000000 |    0.006633 |    -6432.861200 | <-- min BFGS
 | trial step |    0.062500 |    0.006965 |    -6432.861196 | <-- min BFGS
 +------------+-------------+-------------+-----------------+ <-- min BFGS
  

--------------------------------------------------------------------------------
 BFGS: improving iteration         2 with bisection search (lambda=  0.031250)
--------------------------------------------------------------------------------
 
                           -------------------------------
                                      Unit Cell
                           -------------------------------
        Real Lattice(A)              Reciprocal Lattice(1/A)
   6.1260764  -3.5368919   0.0000000        1.0256459  -0.0000000  -0.0000000
   0.0000000   7.0737837   0.0000000        0.5128230   0.8882354  -0.0000000
   0.0000000   0.0000000  14.0238571       -0.0000000   0.0000000   0.4480355
 
                       Lattice parameters(A)       Cell Angles
                    a =    7.073784          alpha =   90.000000
                    b =    7.073784          beta  =   90.000000
                    c =   14.023857          gamma =  120.000000
 
                Current cell volume =  607.717386 A**3
 
                           -------------------------------
                                     Cell Contents
                           -------------------------------
 
            xxxxxxxxxxxxxxxxxxxxxxxxxxxxxxxxxxxxxxxxxxxxxxxxxxxxxxxxxxxx
            x  Element    Atom        Fractional coordinates of atoms  x
            x            Number           u          v          w      x
            x----------------------------------------------------------x
            x  Si           1         0.000000   0.000000  -0.581899   x
[...]
  
 BFGS: finished iteration    12 with enthalpy= -6.43286202E+003 eV
  
 +-----------+-----------------+-----------------+------------+-----+ <-- BFGS
 | Parameter |      value      |    tolerance    |    units   | OK? | <-- BFGS
 +-----------+-----------------+-----------------+------------+-----+ <-- BFGS
 |  dE/ion   |   1.817830E-005 |   5.000000E-006 |         eV | No  | <-- BFGS
 |  |F|max   |   1.035168E-002 |   1.000000E-002 |       eV/A | No  | <-- BFGS
 |  |dR|max  |   3.034117E-005 |   5.000000E-004 |          A | Yes | <-- BFGS
 |   Smax    |   2.841906E-003 |   2.000000E-002 |        GPa | Yes | <-- BFGS
 +-----------+-----------------+-----------------+------------+-----+ <-- BFGS
  

================================================================================
 Starting BFGS iteration         13 ...
================================================================================
  
 +------------+-------------+-------------+-----------------+ <-- min BFGS
 |    Step    |   lambda    |   F.delta'  |    enthalpy     | <-- min BFGS
 +------------+-------------+-------------+-----------------+ <-- min BFGS
 |  previous  |    0.000000 |    0.004210 |    -6432.862021 | <-- min BFGS
 +------------+-------------+-------------+-----------------+ <-- min BFGS
  

--------------------------------------------------------------------------------
 BFGS: starting iteration        13 with trial guess (lambda=  1.000000)
--------------------------------------------------------------------------------
 
                           -------------------------------
                                      Unit Cell
                           -------------------------------
        Real Lattice(A)              Reciprocal Lattice(1/A)
   6.1254122  -3.5365084   0.0000000        1.0257571  -0.0000000  -0.0000000
   0.0000000   7.0730168  -0.0000000        0.5128786   0.8883317   0.0000000
   0.0000000  -0.0000000  14.0133109       -0.0000000   0.0000000   0.4483726
 
                       Lattice parameters(A)       Cell Angles
                    a =    7.073017          alpha =   90.000000
                    b =    7.073017          beta  =   90.000000
                    c =   14.013311          gamma =  120.000000
 
                Current cell volume =  607.128706 A**3
 
                           -------------------------------
                                     Cell Contents
                           -------------------------------
 
            xxxxxxxxxxxxxxxxxxxxxxxxxxxxxxxxxxxxxxxxxxxxxxxxxxxxxxxxxxxx
            x  Element    Atom        Fractional coordinates of atoms  x
            x            Number           u          v          w      x
            x----------------------------------------------------------x
            x  Si           1        -0.000000   0.000000  -0.581824   x
            x  Si           2        -0.000000   0.000000   0.581824   x
            x  Sc           1         0.666667   0.333333  -0.500000   x
            x  Sc           2        -0.666667  -0.333333   0.500000   x
            x  Te           1        -0.000000   0.655885  -0.367119   x
            x  Te           2        -0.655885  -0.655885  -0.367119   x
            x  Te           3         0.655885  -0.000000  -0.367119   x
            x  Te           4        -0.655885   0.000000   0.367119   x
            x  Te           5         0.655885   0.655885   0.367119   x
            x  Te           6        -0.000000  -0.655885   0.367119   x
            xxxxxxxxxxxxxxxxxxxxxxxxxxxxxxxxxxxxxxxxxxxxxxxxxxxxxxxxxxxx
 
 
------------------------------------------------------------------------ <-- SCF
SCF loop      Energy                           Energy gain       Timer   <-- SCF
                                               per atom          (sec)   <-- SCF
------------------------------------------------------------------------ <-- SCF
Initial  -6.43286357E+003                                        495.81  <-- SCF
      1  -6.43286202E+003                   -1.55006453E-004     496.16  <-- SCF
      2  -6.43286202E+003                    3.88591856E-008     496.97  <-- SCF
      3  -6.43286202E+003                   -1.56780747E-007     497.80  <-- SCF
      4  -6.43286202E+003                   -1.18317229E-007     498.64  <-- SCF
------------------------------------------------------------------------ <-- SCF
 
Final energy =  -6432.862018573     eV
(energy not corrected for finite basis set)
 
 
 *********************************** Forces ***********************************
 *                                                                            *
 *                        Cartesian components (eV/A)                         *
 * -------------------------------------------------------------------------- *
 *                   x                    y                    z              *
 *                                                                            *
 * Si        1      0.00000             -0.00000              0.00840         *
 * Si        2      0.00000              0.00000             -0.00840         *
 * Sc        1     -0.00000              0.00000              0.00000         *
 * Sc        2      0.00000              0.00000              0.00000         *
 * Te        1     -0.00000             -0.01037              0.00075         *
 * Te        2      0.00898              0.00518              0.00075         *
 * Te        3     -0.00898              0.00518              0.00075         *
 * Te        4      0.00898             -0.00518             -0.00075         *
 * Te        5     -0.00898             -0.00518             -0.00075         *
 * Te        6      0.00000              0.01037             -0.00075         *
 *                                                                            *
 ******************************************************************************
 
 ***************** Stress Tensor *****************
 *                                               *
 *          Cartesian components (GPa)           *
 * --------------------------------------------- *
 *             x             y             z     *
 *                                               *
 *  x     -0.001473     -0.000000      0.000000  *
 *  y     -0.000000     -0.001473      0.000000  *
 *  z      0.000000      0.000000     -0.002048  *
 *                                               *
 *  Pressure:    0.0017                          *
 *                                               *
 *************************************************
  
 +------------+-------------+-------------+-----------------+ <-- min BFGS
 |    Step    |   lambda    |   F.delta'  |    enthalpy     | <-- min BFGS
 +------------+-------------+-------------+-----------------+ <-- min BFGS
 |  previous  |    0.000000 |    0.004210 |    -6432.862021 | <-- min BFGS
 | trial step |    1.000000 |    0.003997 |    -6432.862019 | <-- min BFGS
 +------------+-------------+-------------+-----------------+ <-- min BFGS
  

--------------------------------------------------------------------------------
 BFGS: improving iteration        13 with line minimization (lambda= 19.741210)
--------------------------------------------------------------------------------
 
                           -------------------------------
                                      Unit Cell
                           -------------------------------
        Real Lattice(A)              Reciprocal Lattice(1/A)
   6.1252616  -3.5364214   0.0000000        1.0257824  -0.0000000  -0.0000000
   0.0000000   7.0728429  -0.0000000        0.5128912   0.8883536   0.0000000
   0.0000000  -0.0000000  14.0154131       -0.0000000   0.0000000   0.4483054
 
                       Lattice parameters(A)       Cell Angles
                    a =    7.072843          alpha =   90.000000
                    b =    7.072843          beta  =   90.000000
                    c =   14.015413          gamma =  120.000000
 
                Current cell volume =  607.189921 A**3
 
                           -------------------------------
                                     Cell Contents
                           -------------------------------
 
            xxxxxxxxxxxxxxxxxxxxxxxxxxxxxxxxxxxxxxxxxxxxxxxxxxxxxxxxxxxx
            x  Element    Atom        Fractional coordinates of atoms  x
            x            Number           u          v          w      x
            x----------------------------------------------------------x
            x  Si           1        -0.000000   0.000000  -0.581807   x
            x  Si           2        -0.000000   0.000000   0.581807   x
            x  Sc           1         0.666667   0.333333  -0.500000   x
            x  Sc           2        -0.666667  -0.333333   0.500000   x
            x  Te           1        -0.000000   0.655852  -0.367115   x
            x  Te           2        -0.655852  -0.655852  -0.367115   x
            x  Te           3         0.655852   0.000000  -0.367115   x
            x  Te           4        -0.655852   0.000000   0.367115   x
            x  Te           5         0.655852   0.655852   0.367115   x
            x  Te           6        -0.000000  -0.655852   0.367115   x
            xxxxxxxxxxxxxxxxxxxxxxxxxxxxxxxxxxxxxxxxxxxxxxxxxxxxxxxxxxxx
 
 
------------------------------------------------------------------------ <-- SCF
SCF loop      Energy                           Energy gain       Timer   <-- SCF
                                               per atom          (sec)   <-- SCF
------------------------------------------------------------------------ <-- SCF
Initial  -6.43289284E+003                                        501.83  <-- SCF
      1  -6.43286255E+003                   -3.02940600E-003     502.41  <-- SCF
      2  -6.43286263E+003                    8.16186748E-006     503.52  <-- SCF
      3  -6.43286209E+003                   -5.38103603E-005     504.59  <-- SCF
      4  -6.43286200E+003                   -9.58058344E-006     505.70  <-- SCF
      5  -6.43286192E+003                   -7.89385039E-006     506.67  <-- SCF
      6  -6.43286188E+003                   -4.39330498E-006     507.50  <-- SCF
      7  -6.43286183E+003                   -4.98720791E-006     508.44  <-- SCF
      8  -6.43286182E+003                   -6.07908320E-007     509.33  <-- SCF
      9  -6.43286184E+003                    2.41068868E-006     510.16  <-- SCF
     10  -6.43286186E+003                    1.35360004E-006     510.98  <-- SCF
     11  -6.43286189E+003                    3.21800646E-006     511.81  <-- SCF
     12  -6.43286194E+003                    5.26080163E-006     512.66  <-- SCF
     13  -6.43286197E+003                    2.55080573E-006     513.50  <-- SCF
     14  -6.43286197E+003                    4.04438700E-007     514.33  <-- SCF
     15  -6.43286197E+003                    5.17297005E-008     515.17  <-- SCF
------------------------------------------------------------------------ <-- SCF
 
Final energy =  -6432.861972181     eV
(energy not corrected for finite basis set)
 
 
 *********************************** Forces ***********************************
 *                                                                            *
 *                        Cartesian components (eV/A)                         *
 * -------------------------------------------------------------------------- *
 *                   x                    y                    z              *
 *                                                                            *
 * Si        1      0.00000             -0.00000              0.00531         *
 * Si        2     -0.00000              0.00000             -0.00531         *
 * Sc        1     -0.00000              0.00000              0.00000         *
 * Sc        2      0.00000              0.00000             -0.00000         *
 * Te        1      0.00000             -0.00857              0.00132         *
 * Te        2      0.00742              0.00428              0.00132         *
 * Te        3     -0.00742              0.00428              0.00132         *
 * Te        4      0.00742             -0.00428             -0.00132         *
 * Te        5     -0.00742             -0.00428             -0.00132         *
 * Te        6     -0.00000              0.00857             -0.00132         *
 *                                                                            *
 ******************************************************************************
 
 ***************** Stress Tensor *****************
 *                                               *
 *          Cartesian components (GPa)           *
 * --------------------------------------------- *
 *             x             y             z     *
 *                                               *
 *  x      0.001545      0.000000      0.000000  *
 *  y      0.000000      0.001545      0.000000  *
 *  z      0.000000      0.000000     -0.000682  *
 *                                               *
 *  Pressure:   -0.0008                          *
 *                                               *
 *************************************************
  
 +------------+-------------+-------------+-----------------+ <-- min BFGS
 |    Step    |   lambda    |   F.delta'  |    enthalpy     | <-- min BFGS
 +------------+-------------+-------------+-----------------+ <-- min BFGS
 |  previous  |    0.000000 |    0.004210 |    -6432.862021 | <-- min BFGS
 | trial step |    1.000000 |    0.003997 |    -6432.862019 | <-- min BFGS
 |  line step |   19.741210 |    0.003181 |    -6432.861972 | <-- min BFGS
 +------------+-------------+-------------+-----------------+ <-- min BFGS
  
 BFGS: finished iteration    13 with enthalpy= -6.43286197E+003 eV
  
 +-----------+-----------------+-----------------+------------+-----+ <-- BFGS
 | Parameter |      value      |    tolerance    |    units   | OK? | <-- BFGS
 +-----------+-----------------+-----------------+------------+-----+ <-- BFGS
 |  dE/ion   |   4.835144E-006 |   5.000000E-006 |         eV | Yes | <-- BFGS
 |  |F|max   |   8.667885E-003 |   1.000000E-002 |       eV/A | Yes | <-- BFGS
 |  |dR|max  |   2.558094E-004 |   5.000000E-004 |          A | Yes | <-- BFGS
 |   Smax    |   1.545480E-003 |   2.000000E-002 |        GPa | Yes | <-- BFGS
 +-----------+-----------------+-----------------+------------+-----+ <-- BFGS
  
 BFGS: Geometry optimization completed successfully.

================================================================================
 BFGS: Final Configuration:
================================================================================
 
                           -------------------------------
                                      Unit Cell
                           -------------------------------
        Real Lattice(A)              Reciprocal Lattice(1/A)
   6.1252616  -3.5364214   0.0000000        1.0257824  -0.0000000  -0.0000000
   0.0000000   7.0728429  -0.0000000        0.5128912   0.8883536   0.0000000
   0.0000000  -0.0000000  14.0154131       -0.0000000   0.0000000   0.4483054
 
                       Lattice parameters(A)       Cell Angles
                    a =    7.072843          alpha =   90.000000
                    b =    7.072843          beta  =   90.000000
                    c =   14.015413          gamma =  120.000000
 
                Current cell volume =  607.189921 A**3
 
                           -------------------------------
                                     Cell Contents
                           -------------------------------
 
            xxxxxxxxxxxxxxxxxxxxxxxxxxxxxxxxxxxxxxxxxxxxxxxxxxxxxxxxxxxx
            x  Element    Atom        Fractional coordinates of atoms  x
            x            Number           u          v          w      x
            x----------------------------------------------------------x
            x  Si           1        -0.000000   0.000000  -0.581807   x
            x  Si           2        -0.000000   0.000000   0.581807   x
            x  Sc           1         0.666667   0.333333  -0.500000   x
            x  Sc           2        -0.666667  -0.333333   0.500000   x
            x  Te           1        -0.000000   0.655852  -0.367115   x
            x  Te           2        -0.655852  -0.655852  -0.367115   x
            x  Te           3         0.655852   0.000000  -0.367115   x
            x  Te           4        -0.655852   0.000000   0.367115   x
            x  Te           5         0.655852   0.655852   0.367115   x
            x  Te           6        -0.000000  -0.655852   0.367115   x
            xxxxxxxxxxxxxxxxxxxxxxxxxxxxxxxxxxxxxxxxxxxxxxxxxxxxxxxxxxxx
 
 
 BFGS: Final Enthalpy     = -6.43286197E+003 eV
 BFGS: Final <frequency>  unchanged from initial value
 BFGS: Final bulk modulus =      40.77244 GPa
  
  **********************************************************
  *** There were at least     8 warnings during this run ***
  *** => please check the whole of this file carefully!  ***
  **********************************************************
 
 ***************************** Symmetrised Forces *****************************
 *                                                                            *
 *                        Cartesian components (eV/A)                         *
 * -------------------------------------------------------------------------- *
 *                   x                    y                    z              *
 *                                                                            *
 * Si        1      0.00000             -0.00000              0.00531         *
 * Si        2     -0.00000              0.00000             -0.00531         *
 * Sc        1     -0.00000              0.00000              0.00000         *
 * Sc        2      0.00000              0.00000             -0.00000         *
 * Te        1      0.00000             -0.00857              0.00132         *
 * Te        2      0.00742              0.00428              0.00132         *
 * Te        3     -0.00742              0.00428              0.00132         *
 * Te        4      0.00742             -0.00428             -0.00132         *
 * Te        5     -0.00742             -0.00428             -0.00132         *
 * Te        6     -0.00000              0.00857             -0.00132         *
 *                                                                            *
 ******************************************************************************
 
 *********** Symmetrised Stress Tensor ***********
 *                                               *
 *          Cartesian components (GPa)           *
 * --------------------------------------------- *
 *             x             y             z     *
 *                                               *
 *  x      0.001545      0.000000      0.000000  *
 *  y      0.000000      0.001545      0.000000  *
 *  z      0.000000      0.000000     -0.000682  *
 *                                               *
 *  Pressure:   -0.0008                          *
 *                                               *
 *************************************************

Writing analysis data to ScSiTe3__0_0_1_.castep_bin

Writing model to ScSiTe3__0_0_1_.check
 
 A BibTeX formatted list of references used in this run has been written to 
 ScSiTe3__0_0_1_.bib
 
Initialisation time =     27.91 s
Calculation time    =    489.55 s
Finalisation time   =      0.84 s
Total time          =    518.30 s
  
Overall parallel efficiency rating: Poor (43%)                                  
  
Data was distributed by:-
G-vector (24-way); efficiency rating: Poor (44%)                                
k-point (2-way); efficiency rating: Very good (89%)                             
  
Parallel notes:
1) Calculation only took 517.6 s, so efficiency estimates may be inaccurate.    
