 Job started on host DESKTOP-1C867QN
 at Tue May 27 17:52:55 2025

 +-------------------------------------------------+
 |                                                 |
 |      CCC   AA    SSS  TTTTT  EEEEE  PPPP        |
 |     C     A  A  S       T    E      P   P       |
 |     C     AAAA   SS     T    EEE    PPPP        |
 |     C     A  A     S    T    E      P           |
 |      CCC  A  A  SSS     T    EEEEE  P           |
 |                                                 |
 +-------------------------------------------------+
 |                                                 |
 | Materials Studio CASTEP version 2017            |
 | Ab Initio Total Energy Program                  |
 |                                                 |
 | Authors:                                        |
 | M. Segall, M. Probert, C. Pickard, P. Hasnip,   |
 | S. Clark, K. Refson, J. R. Yates, M. Payne      |
 |                                                 |
 | Contributors:                                   |
 | P. Lindan, P. Haynes, J. White, V. Milman,      |
 | N. Govind, M. Gibson, P. Tulip, V. Cocula,      |
 | B. Montanari, D. Quigley, M. Glover,            |
 | L. Bernasconi, A. Perlov, M. Plummer,           |
 | E. McNellis, J. Meyer, J. Gale, D. Jochym       |
 | J. Aarons, B. Walker, R. Gillen, D. Jones       |
 | T. Green, I. J. Bush, C. J. Armstrong,          |
 | E. J. Higgins, E. L. Brown, M. S. McFly         |
 |                                                 |
 | Copyright (c) 2000 - 2016                       |
 |                                                 |
 | Please cite                                     |
 |                                                 |
 |     "First principles methods using CASTEP"     |
 |                                                 |
 |         Zeitschrift fuer Kristallographie       |
 |           220(5-6) pp. 567-570 (2005)           |
 |                                                 |
 | S. J. Clark, M. D. Segall, C. J. Pickard,       |
 | P. J. Hasnip, M. J. Probert, K. Refson,         |
 | M. C. Payne                                     |
 |                                                 |
 |       in all publications arising from          |
 |              your use of CASTEP                 |
 |                                                 |
 +-------------------------------------------------+
 
 
 This version was compiled for x86_64-windows-msvc2008 on May 05 2016
 Intel(R) Math Kernel Library Version 11.1.2 
 Fundamental constants values: CODATA 2010
 
License checkout of MS_castep successful
 

 Warning in parameters_validate: current value of 
   ELEC_EIGENVALUE_TOL = 0.100000E-08eV
   is too large to achieve desired level of convergence of response properties.
   This may cause convergence failures and/or inaccuracy of results
   of PHONON+EFIELD calculations - recommend you use a smaller value, e.g. 
   ELEC_EIGENVALUE_TOL = 0.303030E-10eV
 +-------------------------------------------------+
 |                                                 |
 |  D D D D    F F F F F  P P P P     T T T T T    |
 |  D       D  F          P       P       T        |
 |  D       D  F F F F    P P P P         T        |
 |  D       D  F          P               T        |
 |  D D D D    F          P               T        |
 |                                                 |
 +-------------------------------------------------+
 |                                                 |
 | Welcome to Castep Linear Response (DFPT)        |
 |                                                 |
 | Copyright (c) 2006 - 2016                       |
 |                                                 |
 | Please cite the following publications in all   |
 | work arising from your use of CASTEP LR.        |
 |                                                 |
 | K. Refson, S. J. Clark and P. R. Tulip          |
 | Variational density functional perturbation     |
 | theory for dielectrics and lattice dynamics     |
 | Phys. Rev. B 73(15), 155114 (2006)              |
 +-------------------------------------------------+
 
Reading continuation data from model file ScSiTe3__0_0_1__Efield.check
 
 Atomic calculation performed for Si: 1s2 2s2 2p6 3s2 3p2
 
 Converged in 54 iterations to an ae energy of -7886.857 eV
 
 Identity difference: 2.03E-02
 
   ============================================================                
   | Pseudopotential Report - Date of generation 27-05-2025   |                
   ------------------------------------------------------------                
   | Element: Si Ionic charge:  4.00 Level of theory: PBE     |                
   | Atomic Solver: Koelling-Harmon                           |                
   |                                                          |                
   |               Reference Electronic Structure             |                
   |         Orbital         Occupation         Energy        |                
   |            3s              2.000           -0.397        |                
   |            3p              2.000           -0.150        |                
   |                                                          |                
   |                 Pseudopotential Definition               |                
   |        Beta     l      e      Rc     scheme   norm       |                
   |          1      0   -0.397   1.599     qc      1         |                
   |          2      2    0.000   1.599     qc      1         |                
   |         loc     1   -0.150   1.599     qc      1         |                
   |                                                          |                
   | No charge augmentation                                   |                
   | Partial core correction Rc = 1.117                       |                
   ------------------------------------------------------------                
   | "1|1.6|6|7|9|30N:31L:32N[]"                              |                
   ------------------------------------------------------------                
   |      Author: Chris J. Pickard, Cambridge University      |                
   ============================================================                
 
 Doing a self consistent calculation for the test configuration
 
 Atomic calculation performed for Si: 1s2 2s2 2p6 3s2 3p2
 
 Converged in 54 iterations to an ae energy of -7886.857 eV
 
 ---------------------------------------
 AE eigenvalue nl 10 =      -65.63192903
 AE eigenvalue nl 20 =       -5.12654326
 AE eigenvalue nl 21 =       -3.51173659
 AE eigenvalue nl 30 =       -0.39736430
 AE eigenvalue nl 31 =       -0.14998156
 ---------------------------------------
 PS eigenvalue nl 30 =       -0.39735312
 PS eigenvalue nl 31 =       -0.14996116
 ---------------------------------------
 Maximum eigenvalue error:   2.04E-05
 
 Derived cutoff energies: C=   2 M=   6 F=   6 E=   8
 
 
 ***************************************
 
 Atomic calculation performed for Sc: 1s2 2s2 2p6 3s2 3p6 3d1 4s2
 
 Converged in 74 iterations to an ae energy of -20791.021 eV
 
 Identity difference: 1.25E-02
 
   ============================================================                
   | Pseudopotential Report - Date of generation 27-05-2025   |                
   ------------------------------------------------------------                
   | Element: Sc Ionic charge: 11.00 Level of theory: PBE     |                
   | Atomic Solver: Koelling-Harmon                           |                
   |                                                          |                
   |               Reference Electronic Structure             |                
   |         Orbital         Occupation         Energy        |                
   |            3s              2.000           -2.023        |                
   |            3p              6.000           -1.236        |                
   |            4s              2.000           -0.154        |                
   |            3d              1.000           -0.119        |                
   |                                                          |                
   |                 Pseudopotential Definition               |                
   |        Beta     l      e      Rc     scheme   norm       |                
   |          1      0   -2.023   1.802     qc      1         |                
   |          2      0   -0.154   1.802     qc      1         |                
   |          3      1   -1.236   1.802     qc      1         |                
   |          4      2   -0.119   1.802     qc      1         |                
   |         loc     3    0.000   1.802     pn      0         |                
   |                                                          |                
   | No charge augmentation                                   |                
   | Partial core correction Rc = 1.259                       |                
   ------------------------------------------------------------                
   | "3|1.8|13|16|19|30N:40N:31N:32N(qc=7)[]"                 |                
   ------------------------------------------------------------                
   |      Author: Chris J. Pickard, Cambridge University      |                
   ============================================================                
 
 Doing a self consistent calculation for the test configuration
 
 Atomic calculation performed for Sc: 1s2 2s2 2p6 3s2 3p6 3d1 4s2
 
 Converged in 74 iterations to an ae energy of -20791.021 eV
 
 ---------------------------------------
 AE eigenvalue nl 10 =     -161.59654852
 AE eigenvalue nl 20 =      -17.43125171
 AE eigenvalue nl 21 =      -14.26828408
 AE eigenvalue nl 30 =       -2.02264646
 AE eigenvalue nl 31 =       -1.23568058
 AE eigenvalue nl 32 =       -0.11882454
 AE eigenvalue nl 40 =       -0.15372733
 ---------------------------------------
 PS eigenvalue nl 30 =       -2.02279703
 PS eigenvalue nl 31 =       -1.23555522
 PS eigenvalue nl 32 =       -0.11872923
 PS eigenvalue nl 40 =       -0.15369834
 ---------------------------------------
 Maximum eigenvalue error:   1.51E-04
 
 Derived cutoff energies: C=  13 M=  15 F=  18 E=  20
 
 
 ***************************************
 
 Atomic calculation performed for Te:
 1s2 2s2 2p6 3s2 3p6 3d10 4s2 4p6 4d10 5s2 5p4
 
 Converged in 74 iterations to an ae energy of -184887.051 eV
 
 Identity difference: 6.08E-02
 
   ============================================================                
   | Pseudopotential Report - Date of generation 27-05-2025   |                
   ------------------------------------------------------------                
   | Element: Te Ionic charge:  6.00 Level of theory: PBE     |                
   | Atomic Solver: Koelling-Harmon                           |                
   |                                                          |                
   |               Reference Electronic Structure             |                
   |         Orbital         Occupation         Energy        |                
   |            5s              2.000           -0.555        |                
   |            5p              4.000           -0.219        |                
   |                                                          |                
   |                 Pseudopotential Definition               |                
   |        Beta     l      e      Rc     scheme   norm       |                
   |          1      0   -0.555   2.204     qc      1         |                
   |          2      1   -0.219   2.204     qc      1         |                
   |         loc     2    0.000   2.204     pn      0         |                
   |                                                          |                
   | No charge augmentation                                   |                
   | Partial core correction Rc = 1.540                       |                
   ------------------------------------------------------------                
   | "2|2.2|4.8|7.4|9.2|50N:51N[]"                            |                
   ------------------------------------------------------------                
   |      Author: Chris J. Pickard, Cambridge University      |                
   ============================================================                
 
 Doing a self consistent calculation for the test configuration
 
 Atomic calculation performed for Te:
 1s2 2s2 2p6 3s2 3p6 3d10 4s2 4p6 4d10 5s2 5p4
 
 Converged in 74 iterations to an ae energy of -184887.051 eV
 
 ---------------------------------------
 AE eigenvalue nl 10 =    -1162.35227488
 AE eigenvalue nl 20 =     -178.24632272
 AE eigenvalue nl 21 =     -160.00620108
 AE eigenvalue nl 30 =      -35.47173737
 AE eigenvalue nl 31 =      -29.54318713
 AE eigenvalue nl 32 =      -20.58152877
 AE eigenvalue nl 40 =       -6.04112586
 AE eigenvalue nl 41 =       -4.20445800
 AE eigenvalue nl 42 =       -1.53071897
 AE eigenvalue nl 50 =       -0.55522942
 AE eigenvalue nl 51 =       -0.21878005
 ---------------------------------------
 PS eigenvalue nl 50 =       -0.55521954
 PS eigenvalue nl 51 =       -0.21877245
 ---------------------------------------
 Maximum eigenvalue error:   9.88E-06
 
 Derived cutoff energies: C=   3 M=   5 F=   8 E=  10
 
 
 ***************************************
 
 Pseudo atomic calculation performed for Si 3s2 3p2
 
 Converged in 25 iterations to a total energy of -215.5478 eV
 
 
 Pseudo atomic calculation performed for Sc 3s2 3p6 3d1 4s2
 
 Converged in 42 iterations to a total energy of -1272.6953 eV
 
 
 Pseudo atomic calculation performed for Te 5s2 5p4
 
 Converged in 25 iterations to a total energy of -568.4318 eV
 
Initialising basis set for model.
Reinitialising basis set for current geometry.
Continuing from previous run with ground state wavefunction.
Continuing from previous run with ground state density.
 Info: BS_MAX_ITER modified from        250 to        200
 Info: CALCULATE_RAMAN modified from F to T
 Info: RAMAN_RANGE_HIGH modified from     1.000000000000000     eV to     1.239841929200420     eV
 Info: EFIELD_MAX_CYCLES modified from         50 to        500
 WARNING: phonon dynamical matrix data in check file HAS BEEN DISCARDED.
          because PHONON_KPOINT_LIST changed on continuation.
 WARNING: phonon fine_frequency data in check file HAS BEEN DISCARDED.
          because PHONON_FINE_KPOINT_LIST changed on continuation.
 WARNING: phonon thermal ADP data in check file HAS BEEN DISCARDED.
 Calculation parallelised over 48 processes.
 Data is distributed by G-vector(24-way) and k-point(2-way)

 ************************************ Title ************************************
 CASTEP calculation from Materials Studio

 ***************************** General Parameters ******************************
  
 output verbosity                               : normal  (1)
 continuing from                                : ScSiTe3__0_0_1__Efield.check
 write checkpoint data to                       : ScSiTe3__0_0_1__Efield.check
 type of calculation                            : Phonon followed by E-field
 stress calculation                             : off
 density difference calculation                 : off
 electron localisation func (ELF) calculation   : off
 Hirshfeld analysis                             : off
 unlimited duration calculation
 timing information                             : on
 memory usage estimate                          : on
 write final potential to formatted file        : off
 write final density to formatted file          : off
 write BibTeX reference list                    : on
 write OTFG pseudopotential files               : on
 checkpoint writing                             : both castep_bin and check files
  
 output         length unit                     : A
 output           mass unit                     : amu
 output           time unit                     : ps
 output         charge unit                     : e
 output           spin unit                     : hbar/2
 output         energy unit                     : eV
 output          force unit                     : eV/A
 output       velocity unit                     : A/ps
 output       pressure unit                     : GPa
 output     inv_length unit                     : 1/A
 output      frequency unit                     : cm-1
 output force constant unit                     : eV/A**2
 output         volume unit                     : A**3
 output   IR intensity unit                     : (D/A)**2/amu
 output         dipole unit                     : D
 output         efield unit                     : eV/A/e
 output        entropy unit                     : J/mol/K
  
 wavefunctions paging                           : none
 random number generator seed                   :  154847829
 data distribution                              : optimal for this architecture
 optimization strategy                          : maximize speed(+++)

 *********************** Exchange-Correlation Parameters ***********************
  
 using functional                               : Perdew Burke Ernzerhof
 relativistic treatment                         : Koelling-Harmon
 DFT+D: Semi-empirical dispersion correction    : off

 ************************* Pseudopotential Parameters **************************
  
 pseudopotential representation                 : reciprocal space
 <beta|phi> representation                      : reciprocal space
 spin-orbit coupling                            : off

 **************************** Basis Set Parameters *****************************
  
 plane wave basis set cut-off                   :   570.0000   eV
 size of standard grid                          :     2.0000
 size of   fine   grid                          :     3.0000
 size of   fine   gmax                          :    36.6942   1/A
 largest prime factor in FFT                    :          5
 finite basis set correction                    : automatic
 number of sample energies                      :          3
           sample  spacing                      :     5.0000   eV

 **************************** Electronic Parameters ****************************
  
 number of  electrons                           :  66.00    
 net charge of system                           :  0.000    
 treating system as non-spin-polarized
 number of bands                                :         33

 ********************* Electronic Minimization Parameters **********************
  
 Method: Treating system as non-metallic,
         and number of  SD  steps               :          1
         and number of  CG  steps               :          4
  
 total energy / atom convergence tol.           : 0.1000E-09   eV
 eigen-energy convergence tolerance             : 0.1000E-08   eV
 max force / atom convergence tol.              : ignored
 convergence tolerance window                   :          3   cycles
 max. number of SCF cycles                      :       9999
 periodic dipole correction                     : NONE

 ************************** Density Mixing Parameters **************************
  
 density-mixing scheme                          : Pulay
 max. length of mixing history                  :         20
 charge density mixing amplitude                : 0.5000    
 cut-off energy for mixing                      :  570.0       eV
 charge density mixing g-vector                 :  1.500       1/A

 ****************************** Phonon Parameters ******************************
  
 phonon calculation method                      : linear response
 phonon convergence tolerance                   : 0.1000E-04   eV/A**2
 max. number of phonon cycles                   :        100
 max. number of phonon CG steps                 :          0
 convergence tolerance window                   :          2   cycles
 DFPT solver method                             : AllBands (Gonze variational method)
 preconditioning scheme                         : TPA     
 fine phonon calculation method                 : none
 LO/TO splitting term                           : not included
 acoustic phonon sum rule                       : correct D(q) in recip-space
 Born effective charges                         : calculated
 Born charge sum rule                           : explicitly enforced
 Raman intensities                              : calculated
 Raman frequency window start                   :  0.000       eV
 Raman frequency window stop                    :  1.240       eV
 phonon k-points                                : use reduced set
 phonon DOS                                     : not calculated
 backups results every                          :        900   seconds

 ***************************** E-Field Parameters ******************************
  
 E-field convergence tolerance                  : 0.1000E-04   A**3
 DFPT solver method                             : AllBands (Gonze variational method)
 ionic contribution to permittivity             : included
 treating system as a crystal, 
 => ignoring 3 lowest modes when calculating ionic  contribution to permittivity
 calculation with frequency spacing             : 0.4556E-05   cm-1
 Q-factor for lineshape broadening              :    50.0000
 max. number of E-field cycles                  :        500
 max. number of E-field CG steps                :          0
 convergence tolerance window                   :          2   cycles
 band convergence tolerance                     : 0.1000E-08   eV

 *******************************************************************************
  
 
                           -------------------------------
                                      Unit Cell
                           -------------------------------
        Real Lattice(A)                      Reciprocal Lattice(1/A)
   6.1252616  -3.5364214   0.0000000        1.0257824  -0.0000000  -0.0000000
   0.0000000   7.0728429  -0.0000000        0.5128912   0.8883536   0.0000000
   0.0000000  -0.0000000  14.0154131       -0.0000000   0.0000000   0.4483054
 
                       Lattice parameters(A)       Cell Angles
                    a =    7.072843          alpha =   90.000000
                    b =    7.072843          beta  =   90.000000
                    c =   14.015413          gamma =  120.000000
 
                       Current cell volume =  607.189921       A**3
 
                           -------------------------------
                                     Cell Contents
                           -------------------------------
                         Total number of ions in cell =   10
                      Total number of species in cell =    3
                        Max number of any one species =    6
 
            xxxxxxxxxxxxxxxxxxxxxxxxxxxxxxxxxxxxxxxxxxxxxxxxxxxxxxxxxxxx
            x  Element    Atom        Fractional coordinates of atoms  x
            x            Number           u          v          w      x
            x----------------------------------------------------------x
            x  Si           1        -0.000000   0.000000  -0.581807   x 
            x  Si           2        -0.000000   0.000000   0.581807   x 
            x  Sc           1         0.666667   0.333333  -0.500000   x 
            x  Sc           2        -0.666667  -0.333333   0.500000   x 
            x  Te           1        -0.000000   0.655852  -0.367115   x 
            x  Te           2        -0.655852  -0.655852  -0.367115   x 
            x  Te           3         0.655852   0.000000  -0.367115   x 
            x  Te           4        -0.655852   0.000000   0.367115   x 
            x  Te           5         0.655852   0.655852   0.367115   x 
            x  Te           6        -0.000000  -0.655852   0.367115   x 
            xxxxxxxxxxxxxxxxxxxxxxxxxxxxxxxxxxxxxxxxxxxxxxxxxxxxxxxxxxxx
 
 
                         No user defined ionic velocities
 
                           -------------------------------
                                   Details of Species
                           -------------------------------
 
                               Mass of species in AMU
                                    Si   28.0849991
                                    Sc   44.9560013
                                    Te  127.5999985
 
                          Electric Quadrupole Moment (Barn)
                                    Si    1.0000000 No Isotope Defined
                                    Sc   -0.2200000 Isotope 45
                                    Te    1.0000000 No Isotope Defined
 
                          Files used for pseudopotentials:
                                    Si 1|1.6|6|7|9|30N:31L:32N[]
                                    Sc 3|1.8|13|16|19|30N:40N:31N:32N(qc=7)[]
                                    Te 2|2.2|4.8|7.4|9.2|50N:51N[]
 
                           -------------------------------
                              k-Points For BZ Sampling
                           -------------------------------
                       MP grid size for SCF calculation is  2  2  2
                            with an offset of   0.250  0.250  0.000
                       Number of kpoints used =             2
 
                           -------------------------------
                               Symmetry and Constraints
                           -------------------------------
 
                      Maximum deviation from symmetry = 0.621716E-14     ANG
 
                      Number of symmetry operations   =          12
         There are no ionic constraints specified or generated for this cell
                      Point group of crystal =    20: D3d, -3m, -3 2/m
                      Space group of crystal =   162: P-31m, -P 3 2
 
             Set iprint > 1 for details on symmetry rotations/translations
 
                         Centre of mass is NOT constrained
 
                         Number of cell constraints= 4
                         Cell constraints are:  1 1 3 0 0 0
 
                         External pressure/stress (GPa)
                          0.00000   0.00000   0.00000
                                    0.00000   0.00000
                                              0.00000

 Phonon calculation: q-point   1 (of    1) ( 0.000, 0.000, 0.000):       34.23s
 -------------------------------------------------------------------------------
 
 ==============================================================================
 +                           Vibrational Frequencies                          +
 +                           -----------------------                          +
 +                                                                            +
 + Performing frequency calculation at  1 wavevector  (q-pt )                 +
 + ========================================================================== +
 +                                                                            +
 +============================================================================+
 +                       Raman Intensity Progress Report                      +
 +----------------------------------------------------------------------------+
 + RAMAN: Not a continuation; generating Raman intensities from beginning     +
 +----------------------------------------------------------------------------+
 + Mode     1: not Raman active; calculation not required                     +
 + Mode     2: not Raman active; calculation not required                     +
 + Mode     3: not Raman active; calculation not required                     +
 + Mode     4: not Raman active; calculation not required                     +
 + Mode     5: not Raman active; calculation not required                     +
 + Mode     6: not Raman active; calculation not required                     +
 + Mode     7: performing Raman intensity calculation                         +
 + Mode number:   7 completed;                   time taken:   976.62 seconds +
 + Checkpointing.....                                                         +

Writing analysis data to ScSiTe3__0_0_1__Efield.castep_bin

Writing model to ScSiTe3__0_0_1__Efield.check
 + Mode     8: degenerate with previous; explicit calculation not required    +
 + Mode     9: performing Raman intensity calculation                         +
 + Mode number:   9 completed;                   time taken:   982.73 seconds +
 + Checkpointing.....                                                         +

Writing analysis data to ScSiTe3__0_0_1__Efield.castep_bin

Writing model to ScSiTe3__0_0_1__Efield.check
 + Mode    10: degenerate with previous; explicit calculation not required    +
 + Mode    11: not Raman active; calculation not required                     +
 + Mode    12: not Raman active; calculation not required                     +
 + Mode    13: performing Raman intensity calculation                         +
 + Mode number:  13 completed;                   time taken:   980.14 seconds +
 + Checkpointing.....                                                         +

Writing analysis data to ScSiTe3__0_0_1__Efield.castep_bin

Writing model to ScSiTe3__0_0_1__Efield.check
 + Mode    14: degenerate with previous; explicit calculation not required    +
 + Mode    15: not Raman active; calculation not required                     +
 + Mode    16: not Raman active; calculation not required                     +
 + Mode    17: performing Raman intensity calculation                         +
 + Mode number:  17 completed;                   time taken:   485.77 seconds +
 + Mode    18: performing Raman intensity calculation                         +
 + Mode number:  18 completed;                   time taken:   491.83 seconds +
 + Checkpointing.....                                                         +

Writing analysis data to ScSiTe3__0_0_1__Efield.castep_bin

Writing model to ScSiTe3__0_0_1__Efield.check
 + Mode    19: not Raman active; calculation not required                     +
 + Mode    20: not Raman active; calculation not required                     +
 + Mode    21: not Raman active; calculation not required                     +
 + Mode    22: performing Raman intensity calculation                         +
 + Mode number:  22 completed;                   time taken:   970.52 seconds +
 + Checkpointing.....                                                         +

Writing analysis data to ScSiTe3__0_0_1__Efield.castep_bin

Writing model to ScSiTe3__0_0_1__Efield.check
 + Mode    23: degenerate with previous; explicit calculation not required    +
 + Mode    24: not Raman active; calculation not required                     +
 + Mode    25: not Raman active; calculation not required                     +
 + Mode    26: performing Raman intensity calculation                         +
 + Mode number:  26 completed;                   time taken:   964.81 seconds +
 + Checkpointing.....                                                         +

Writing analysis data to ScSiTe3__0_0_1__Efield.castep_bin

Writing model to ScSiTe3__0_0_1__Efield.check
 + Mode    27: degenerate with previous; explicit calculation not required    +
 + Mode    28: not Raman active; calculation not required                     +
 + Mode    29: not Raman active; calculation not required                     +
 + Mode    30: performing Raman intensity calculation                         +
 + Mode number:  30 completed;                   time taken:   485.78 seconds +
 +----------------------------------------------------------------------------+
 +   E N D    O F    R A M A N    I N T E N S I T Y    C A L C U L A T I O N  +
 +         Raman intensity calculation completed in    6340.88 seconds        +
 +============================================================================+
 + -------------------------------------------------------------------------- +
 +  q-pt=    1 (  0.000000  0.000000  0.000000)     1.0000000000              +
 + -------------------------------------------------------------------------- +
 +  Acoustic sum rule correction <   6.009848 cm-1 applied                    +
 +     N      Frequency irrep.    ir intensity active  raman activity  active + 
 +                (cm-1)         ((D/A)**2/amu)              (A**4/amu)       + 
 +                                                                            +
 +     1      -0.016545   a          0.0000000  N            0.0000000  N     + 
 +     2      -0.016545   a          0.0000000  N            0.0000000  N     + 
 +     3      -0.010488   b          0.0000000  N            0.0000000  N     + 
 +     4      46.026491   c          0.0000000  N            0.0000000  N     + 
 +     5      69.753744   a          0.0007008  Y            0.0000000  N     + 
 +     6      69.753744   a          0.0007008  Y            0.0000000  N     + 
 +     7      72.911471   d          0.0000000  N          215.7003273  Y     + 
 +     8      72.911471   d          0.0000000  N          215.7341126  Y     + 
 +     9      76.135838   d          0.0000000  N           13.6698324  Y     + 
 +    10      76.135838   d          0.0000000  N           13.7695609  Y     + 
 +    11      89.628589   b          0.0003796  Y            0.0000000  N     + 
 +    12      95.414633   e          0.0000000  N            0.0000000  N     + 
 +    13      99.553033   d          0.0000000  N         1011.6563469  Y     + 
 +    14      99.553033   d          0.0000000  N         1011.6565229  Y     + 
 +    15     101.572336   a          0.1568442  Y            0.0000000  N     + 
 +    16     101.572336   a          0.1568442  Y            0.0000000  N     + 
 +    17     103.194670   f          0.0000000  N         3656.7715336  Y     + 
 +    18     140.765061   f          0.0000000  N        14192.3199864  Y     + 
 +    19     165.879661   a         33.6077088  Y            0.0000000  N     + 
 +    20     165.879661   a         33.6077088  Y            0.0000000  N     + 
 +    21     173.019790   c          0.0000000  N            0.0000000  N     + 
 +    22     192.332204   d          0.0000000  N         7966.3028028  Y     + 
 +    23     192.332204   d          0.0000000  N         7966.3046956  Y     + 
 +    24     200.868380   b          0.0160843  Y            0.0000000  N     + 
 +    25     259.904612   b          0.2183498  Y            0.0000000  N     + 
 +    26     342.854750   d          0.0000000  N          426.7474729  Y     + 
 +    27     342.854750   d          0.0000000  N          426.7826920  Y     + 
 +    28     345.000434   a         10.7664433  Y            0.0000000  N     + 
 +    29     345.000434   a         10.7664433  Y            0.0000000  N     + 
 +    30     504.391246   f          0.0000000  N           32.4840662  Y     + 
 + .......................................................................... +
 +        Character table from group theory analysis of eigenvectors          +
 +                           Point Group =  20, D3d                           +
 + .......................................................................... +
 +  Rep  Mul |    E   3  2'   I  -3 m_v                                       +
 +           | ------------------------                                       +
 + a Eu    5 |    2  -1   0  -2   1   0                                       +
 + b A2u   4 |    1   1  -1  -1  -1   1                                       +
 + c A2g   2 |    1   1  -1   1   1  -1                                       +
 + d Eg    5 |    2  -1   0   2  -1   0                                       +
 + e A1u   1 |    1   1   1  -1  -1  -1                                       +
 + f A1g   3 |    1   1   1   1   1   1                                       +
 ==============================================================================
  
 ==============================================================================
 +                      Raman Susceptibility Tensors ((A/amu)*0.5)            +
 +----------------------------------------------------------------------------+
 + Mode number:   1 Raman tensor       Depolarisation Ratio                   +
 +     0.0000    0.0000    0.0000      0.000000                               +
 +     0.0000    0.0000    0.0000                                             +
 +     0.0000    0.0000    0.0000                                             +
 +                                                                            +
 + Mode number:   2 Raman tensor       Depolarisation Ratio                   +
 +     0.0000    0.0000    0.0000      0.000000                               +
 +     0.0000    0.0000    0.0000                                             +
 +     0.0000    0.0000    0.0000                                             +
 +                                                                            +
 + Mode number:   3 Raman tensor       Depolarisation Ratio                   +
 +     0.0000    0.0000    0.0000      0.000000                               +
 +     0.0000    0.0000    0.0000                                             +
 +     0.0000    0.0000    0.0000                                             +
 +                                                                            +
 + Mode number:   4 Raman tensor       Depolarisation Ratio                   +
 +     0.0000    0.0000    0.0000      0.000000                               +
 +     0.0000    0.0000    0.0000                                             +
 +     0.0000    0.0000    0.0000                                             +
 +                                                                            +
 + Mode number:   5 Raman tensor       Depolarisation Ratio                   +
 +     0.0000    0.0000    0.0000      0.000000                               +
 +     0.0000    0.0000    0.0000                                             +
 +     0.0000    0.0000    0.0000                                             +
 +                                                                            +
 + Mode number:   6 Raman tensor       Depolarisation Ratio                   +
 +     0.0000    0.0000    0.0000      0.000000                               +
 +     0.0000    0.0000    0.0000                                             +
 +     0.0000    0.0000    0.0000                                             +
 +                                                                            +
 + Mode number:   7 Raman tensor       Depolarisation Ratio                   +
 +     0.0222    0.1280    0.0092      0.749924                               +
 +     0.1280   -0.0202    0.0016                                             +
 +     0.0092    0.0016    0.0000                                             +
 +                                                                            +
 + Mode number:   8 Raman tensor       Depolarisation Ratio                   +
 +    -0.1297    0.0212    0.0016      0.749771                               +
 +     0.0212    0.1262   -0.0092                                             +
 +     0.0016   -0.0092   -0.0000                                             +
 +                                                                            +
 + Mode number:   9 Raman tensor       Depolarisation Ratio                   +
 +     0.0089   -0.0317   -0.0028      0.746408                               +
 +    -0.0317   -0.0054    0.0007                                             +
 +    -0.0028    0.0007    0.0000                                             +
 +                                                                            +
 + Mode number:  10 Raman tensor       Depolarisation Ratio                   +
 +    -0.0287   -0.0072   -0.0007      0.739345                               +
 +    -0.0072    0.0348   -0.0028                                             +
 +    -0.0007   -0.0028    0.0001                                             +
 +                                                                            +
 + Mode number:  11 Raman tensor       Depolarisation Ratio                   +
 +     0.0000    0.0000    0.0000      0.000000                               +
 +     0.0000    0.0000    0.0000                                             +
 +     0.0000    0.0000    0.0000                                             +
 +                                                                            +
 + Mode number:  12 Raman tensor       Depolarisation Ratio                   +
 +     0.0000    0.0000    0.0000      0.000000                               +
 +     0.0000    0.0000    0.0000                                             +
 +     0.0000    0.0000    0.0000                                             +
 +                                                                            +
 + Mode number:  13 Raman tensor       Depolarisation Ratio                   +
 +    -0.2793   -0.0361   -0.0012      0.750000                               +
 +    -0.0361    0.2792   -0.0084                                             +
 +    -0.0012   -0.0084    0.0000                                             +
 +                                                                            +
 + Mode number:  14 Raman tensor       Depolarisation Ratio                   +
 +    -0.0362    0.2792    0.0084      0.750000                               +
 +     0.2792    0.0359   -0.0012                                             +
 +     0.0084   -0.0012    0.0000                                             +
 +                                                                            +
 + Mode number:  15 Raman tensor       Depolarisation Ratio                   +
 +     0.0000    0.0000    0.0000      0.000000                               +
 +     0.0000    0.0000    0.0000                                             +
 +     0.0000    0.0000    0.0000                                             +
 +                                                                            +
 + Mode number:  16 Raman tensor       Depolarisation Ratio                   +
 +     0.0000    0.0000    0.0000      0.000000                               +
 +     0.0000    0.0000    0.0000                                             +
 +     0.0000    0.0000    0.0000                                             +
 +                                                                            +
 + Mode number:  17 Raman tensor       Depolarisation Ratio                   +
 +     0.4689    0.0000    0.0000      0.107584                               +
 +     0.0000    0.4689    0.0000                                             +
 +     0.0000    0.0000    0.0273                                             +
 +                                                                            +
 + Mode number:  18 Raman tensor       Depolarisation Ratio                   +
 +    -0.9297    0.0000    0.0000      0.122863                               +
 +     0.0000   -0.9297    0.0000                                             +
 +     0.0000    0.0000   -0.0064                                             +
 +                                                                            +
 + Mode number:  19 Raman tensor       Depolarisation Ratio                   +
 +     0.0000    0.0000    0.0000      0.000000                               +
 +     0.0000    0.0000    0.0000                                             +
 +     0.0000    0.0000    0.0000                                             +
 +                                                                            +
 + Mode number:  20 Raman tensor       Depolarisation Ratio                   +
 +     0.0000    0.0000    0.0000      0.000000                               +
 +     0.0000    0.0000    0.0000                                             +
 +     0.0000    0.0000    0.0000                                             +
 +                                                                            +
 + Mode number:  21 Raman tensor       Depolarisation Ratio                   +
 +     0.0000    0.0000    0.0000      0.000000                               +
 +     0.0000    0.0000    0.0000                                             +
 +     0.0000    0.0000    0.0000                                             +
 +                                                                            +
 + Mode number:  22 Raman tensor       Depolarisation Ratio                   +
 +    -0.7772   -0.1421    0.0021      0.750000                               +
 +    -0.1421    0.7777    0.0108                                             +
 +     0.0021    0.0108   -0.0000                                             +
 +                                                                            +
 + Mode number:  23 Raman tensor       Depolarisation Ratio                   +
 +     0.1417   -0.7775    0.0108      0.750000                               +
 +    -0.7775   -0.1425   -0.0021                                             +
 +     0.0108   -0.0021    0.0000                                             +
 +                                                                            +
 + Mode number:  24 Raman tensor       Depolarisation Ratio                   +
 +     0.0000    0.0000    0.0000      0.000000                               +
 +     0.0000    0.0000    0.0000                                             +
 +     0.0000    0.0000    0.0000                                             +
 +                                                                            +
 + Mode number:  25 Raman tensor       Depolarisation Ratio                   +
 +     0.0000    0.0000    0.0000      0.000000                               +
 +     0.0000    0.0000    0.0000                                             +
 +     0.0000    0.0000    0.0000                                             +
 +                                                                            +
 + Mode number:  26 Raman tensor       Depolarisation Ratio                   +
 +    -0.1719    0.0595    0.0009      0.749960                               +
 +     0.0595    0.1740   -0.0022                                             +
 +     0.0009   -0.0022    0.0000                                             +
 +                                                                            +
 + Mode number:  27 Raman tensor       Depolarisation Ratio                   +
 +    -0.0613   -0.1730   -0.0022      0.749879                               +
 +    -0.1730    0.0577   -0.0009                                             +
 +    -0.0022   -0.0009   -0.0000                                             +
 +                                                                            +
 + Mode number:  28 Raman tensor       Depolarisation Ratio                   +
 +     0.0000    0.0000    0.0000      0.000000                               +
 +     0.0000    0.0000    0.0000                                             +
 +     0.0000    0.0000    0.0000                                             +
 +                                                                            +
 + Mode number:  29 Raman tensor       Depolarisation Ratio                   +
 +     0.0000    0.0000    0.0000      0.000000                               +
 +     0.0000    0.0000    0.0000                                             +
 +     0.0000    0.0000    0.0000                                             +
 +                                                                            +
 + Mode number:  30 Raman tensor       Depolarisation Ratio                   +
 +    -0.0449    0.0000    0.0000      0.153732                               +
 +     0.0000   -0.0449    0.0000                                             +
 +     0.0000    0.0000    0.0039                                             +
 +                                                                            +
 +----------------------------------------------------------------------------+
  

 ===============================================================================
        Optical Permittivity (f->infinity)             DC Permittivity (f=0)
        ----------------------------------             ---------------------
         7.91687     0.00000     0.00000        12.57881     0.00000     0.00000
         0.00000     7.91687     0.00000         0.00000    12.57881    -0.00000
         0.00000     0.00000     1.78145         0.00000    -0.00000     1.79437
 ===============================================================================

 ===============================================================================
                                    Polarisabilities (A**3)
                Optical (f->infinity)                       Static  (f=0)
                ---------------------                       -------------
       334.21357     0.00000     0.00000       559.47243     0.00000     0.00000
         0.00000   334.21357     0.00000         0.00000   559.47243    -0.00000
         0.00000     0.00000    37.75848         0.00000    -0.00000    38.38278
 ===============================================================================
 ===================================================
                   Born Effective Charges
                   ----------------------
   Si      1         2.58432     0.00000    -0.00000
                     0.00000     2.58432    -0.00000
                     0.00000     0.00000     0.11790
   Si      2         2.58432     0.00000    -0.00000
                     0.00000     2.58432    -0.00000
                     0.00000     0.00000     0.11790
   Sc      1         5.05872     0.00000     0.00000
                     0.00000     5.05872    -0.00000
                     0.00000    -0.00000     0.41575
   Sc      2         5.05872     0.00000     0.00000
                     0.00000     5.05872    -0.00000
                     0.00000    -0.00000     0.41575
   Te      1        -2.58031    -0.00000    -0.00000
                    -0.00000    -2.51505    -0.01485
                    -0.00000    -0.68091    -0.17789
   Te      2        -2.53136     0.02826     0.01286
                     0.02826    -2.56399     0.00742
                     0.58968     0.34045    -0.17789
   Te      3        -2.53136    -0.02826    -0.01286
                    -0.02826    -2.56399     0.00742
                    -0.58968     0.34045    -0.17789
   Te      4        -2.53136    -0.02826    -0.01286
                    -0.02826    -2.56399     0.00742
                    -0.58968     0.34045    -0.17789
   Te      5        -2.53136     0.02826     0.01286
                     0.02826    -2.56399     0.00742
                     0.58968     0.34045    -0.17789
   Te      6        -2.58031    -0.00000    -0.00000
                    -0.00000    -2.51505    -0.01485
                    -0.00000    -0.68091    -0.17789
 ===================================================
 
 ***************** Symmetrised Forces *****************
 *                                                    *
 *            Cartesian components (eV/A)             *
 * -------------------------------------------------- *
 *                   x            y            z      *
 *                                                    *
 * Si        1      0.00000     -0.00000      0.00506 *
 * Si        2     -0.00000      0.00000     -0.00506 *
 * Sc        1      0.00000      0.00000      0.00000 *
 * Sc        2     -0.00000      0.00000      0.00000 *
 * Te        1      0.00000     -0.00843      0.00140 *
 * Te        2      0.00730      0.00421      0.00140 *
 * Te        3     -0.00730      0.00421      0.00140 *
 * Te        4      0.00730     -0.00421     -0.00140 *
 * Te        5     -0.00730     -0.00421     -0.00140 *
 * Te        6     -0.00000      0.00843     -0.00140 *
 *                                                    *
 ******************************************************

Writing analysis data to ScSiTe3__0_0_1__Efield.castep_bin

Writing model to ScSiTe3__0_0_1__Efield.check
 
 A BibTeX formatted list of references used in this run has been written to 
 ScSiTe3__0_0_1__Efield.bib
 
Initialisation time =     34.06 s
Calculation time    =   6340.98 s
Finalisation time   =      0.97 s
Total time          =   6376.02 s
  
Overall parallel efficiency rating: Poor (40%)                                  
  
Data was distributed by:-
G-vector (24-way); efficiency rating: Poor (42%)                                
k-point (2-way); efficiency rating: Very good (88%)                             
